<?xml version="1.0" encoding="UTF-8"?>

<!-- generated on 2022-11-26 17:47:36 by Eclipse SUMO GUI Version v1_15_0+0450-e1b3cbf60b2
<configuration xmlns:xsi="http://www.w3.org/2001/XMLSchema-instance" xsi:noNamespaceSchemaLocation="http://sumo.dlr.de/xsd/sumoConfiguration.xsd">

    <input>
        <net-file value="/Users/mikesoukup/Desktop/NU MSDS/MSDS 452/TrafficAnalysis_MSDS452/sumo/tools/ChicagoNetworkReduced/osm.net.xml"/>
        <route-files value="/Users/mikesoukup/Desktop/NU MSDS/MSDS 452/TrafficAnalysis_MSDS452/sumo/tools/ChicagoNetworkReduced/osm.passenger.trips.traffic.xml"/>
    </input>

    <output>
        <tripinfo-output value="/Users/mikesoukup/Desktop/NU MSDS/MSDS 452/TrafficAnalysis_MSDS452/sumo/tools/ChicagoNetworkReduced/tripinfo_traffic.xml"/>
        <vehroute-output value="/Users/mikesoukup/Desktop/NU MSDS/MSDS 452/TrafficAnalysis_MSDS452/sumo/tools/ChicagoNetworkReduced/vehroutes_traffic.xml"/>
        <collision-output value="/Users/mikesoukup/Desktop/NU MSDS/MSDS 452/TrafficAnalysis_MSDS452/sumo/tools/ChicagoNetworkReduced/collisions_traffic.xml"/>
        <statistic-output value="/Users/mikesoukup/Desktop/NU MSDS/MSDS 452/TrafficAnalysis_MSDS452/sumo/tools/ChicagoNetworkReduced/sim_stats_out_traffic.xml"/>
    </output>

    <processing>
        <ignore-route-errors value="true"/>
    </processing>

    <routing>
        <device.rerouting.adaptation-steps value="18"/>
        <device.rerouting.adaptation-interval value="10"/>
    </routing>

    <report>
        <verbose value="true"/>
        <duration-log.statistics value="true"/>
        <no-step-log value="true"/>
    </report>

    <gui_only>
        <gui-settings-file value="/Users/mikesoukup/Desktop/NU MSDS/MSDS 452/TrafficAnalysis_MSDS452/sumo/tools/ChicagoNetworkReduced/osm.view.xml"/>
    </gui_only>

</configuration>
-->

<tripinfos xmlns:xsi="http://www.w3.org/2001/XMLSchema-instance" xsi:noNamespaceSchemaLocation="http://sumo.dlr.de/xsd/tripinfo_file.xsd">
</tripinfos>
