<?xml version="1.0" encoding="UTF-8"?>

<!-- generated on 2022-11-26 18:38:53 by Eclipse SUMO sumo Version v1_15_0+0450-e1b3cbf60b2
<configuration xmlns:xsi="http://www.w3.org/2001/XMLSchema-instance" xsi:noNamespaceSchemaLocation="http://sumo.dlr.de/xsd/sumoConfiguration.xsd">

    <input>
        <net-file value="osm.net.xml"/>
        <route-files value="osm.passenger.trips.solo.xml"/>
    </input>

    <output>
        <tripinfo-output value="tripinfo_solo.xml"/>
        <vehroute-output value="vehroutes_solo.xml"/>
        <collision-output value="collisions_solo.xml"/>
        <statistic-output value="sim_stats_out_solo.xml"/>
    </output>

    <processing>
        <ignore-route-errors value="true"/>
        <max-num-vehicles value="1"/>
    </processing>

    <routing>
        <device.rerouting.adaptation-steps value="18"/>
        <device.rerouting.adaptation-interval value="10"/>
    </routing>

    <report>
        <verbose value="true"/>
        <duration-log.statistics value="true"/>
        <no-step-log value="true"/>
    </report>

    <gui_only>
        <gui-settings-file value="osm.view.xml"/>
    </gui_only>

</configuration>
-->

<tripinfos xmlns:xsi="http://www.w3.org/2001/XMLSchema-instance" xsi:noNamespaceSchemaLocation="http://sumo.dlr.de/xsd/tripinfo_file.xsd">
    <tripinfo id="taxi_0" depart="0.00" departLane="583081972_0" departPos="5.10" departSpeed="0.00" departDelay="0.00" arrival="367.00" arrivalLane="1040118849#0_0" arrivalPos="165.13" arrivalSpeed="12.83" duration="367.00" routeLength="2447.73" waitingTime="178.00" waitingCount="7" stopTime="0.00" timeLoss="265.11" rerouteNo="1" devices="vehroute_taxi_0 tripinfo_taxi_0 routing_taxi_0" vType="veh_passenger" speedFactor="1.00" vaporized=""/>
    <tripinfo id="taxi_1" depart="367.00" departLane="965387812#7_0" departPos="5.10" departSpeed="0.00" departDelay="366.36" arrival="650.00" arrivalLane="145857394#0_0" arrivalPos="102.18" arrivalSpeed="21.83" duration="283.00" routeLength="2229.65" waitingTime="84.00" waitingCount="8" stopTime="0.00" timeLoss="198.62" rerouteNo="1" devices="vehroute_taxi_1 tripinfo_taxi_1 routing_taxi_1" vType="veh_passenger" speedFactor="1.00" vaporized=""/>
    <tripinfo id="taxi_2" depart="650.00" departLane="461207921#0_1" departPos="5.10" departSpeed="0.00" departDelay="649.34" arrival="911.00" arrivalLane="23891801#0_0" arrivalPos="274.92" arrivalSpeed="21.38" duration="261.00" routeLength="2046.81" waitingTime="93.00" waitingCount="7" stopTime="0.00" timeLoss="180.78" rerouteNo="1" devices="vehroute_taxi_2 tripinfo_taxi_2 routing_taxi_2" vType="veh_passenger" speedFactor="1.00" vaporized=""/>
    <tripinfo id="taxi_3" depart="911.00" departLane="134319745#0_0" departPos="5.10" departSpeed="0.00" departDelay="910.06" arrival="1207.00" arrivalLane="56720835#3_0" arrivalPos="97.85" arrivalSpeed="21.16" duration="296.00" routeLength="1996.50" waitingTime="125.00" waitingCount="8" stopTime="0.00" timeLoss="221.45" rerouteNo="1" devices="vehroute_taxi_3 tripinfo_taxi_3 routing_taxi_3" vType="veh_passenger" speedFactor="1.00" vaporized=""/>
    <tripinfo id="taxi_4" depart="1207.00" departLane="-316912742_0" departPos="5.10" departSpeed="0.00" departDelay="1205.84" arrival="1644.00" arrivalLane="134319745#0_0" arrivalPos="121.88" arrivalSpeed="24.16" duration="437.00" routeLength="2837.67" waitingTime="246.00" waitingCount="8" stopTime="0.00" timeLoss="331.81" rerouteNo="1" devices="vehroute_taxi_4 tripinfo_taxi_4 routing_taxi_4" vType="veh_passenger" speedFactor="1.00" vaporized=""/>
    <tripinfo id="taxi_5" depart="1644.00" departLane="583081972_0" departPos="5.10" departSpeed="0.00" departDelay="1642.10" arrival="2053.00" arrivalLane="24098485#0_0" arrivalPos="131.92" arrivalSpeed="13.79" duration="409.00" routeLength="3282.40" waitingTime="176.00" waitingCount="9" stopTime="0.00" timeLoss="282.51" rerouteNo="1" devices="vehroute_taxi_5 tripinfo_taxi_5 routing_taxi_5" vType="veh_passenger" speedFactor="1.00" vaporized=""/>
    <tripinfo id="taxi_6" depart="2053.00" departLane="116846056#0_0" departPos="5.10" departSpeed="0.00" departDelay="2050.42" arrival="2433.00" arrivalLane="23891801#0_0" arrivalPos="274.92" arrivalSpeed="21.71" duration="380.00" routeLength="2454.78" waitingTime="177.00" waitingCount="9" stopTime="0.00" timeLoss="284.63" rerouteNo="1" devices="vehroute_taxi_6 tripinfo_taxi_6 routing_taxi_6" vType="veh_passenger" speedFactor="1.00" vaporized=""/>
    <tripinfo id="taxi_7" depart="2433.00" departLane="1031291396#1_0" departPos="5.10" departSpeed="0.00" departDelay="2429.53" arrival="2678.00" arrivalLane="33116710#0_0" arrivalPos="188.31" arrivalSpeed="27.71" duration="245.00" routeLength="2173.54" waitingTime="62.00" waitingCount="7" stopTime="0.00" timeLoss="162.68" rerouteNo="1" devices="vehroute_taxi_7 tripinfo_taxi_7 routing_taxi_7" vType="veh_passenger" speedFactor="1.00" vaporized=""/>
    <tripinfo id="taxi_8" depart="2678.00" departLane="134319745#0_0" departPos="5.10" departSpeed="0.00" departDelay="2674.45" arrival="3132.00" arrivalLane="1040118849#0_0" arrivalPos="165.13" arrivalSpeed="12.72" duration="454.00" routeLength="2810.98" waitingTime="213.00" waitingCount="11" stopTime="0.00" timeLoss="337.65" rerouteNo="3" devices="vehroute_taxi_8 tripinfo_taxi_8 routing_taxi_8" vType="veh_passenger" speedFactor="1.00" vaporized=""/>
    <tripinfo id="taxi_9" depart="3132.00" departLane="134319745#0_0" departPos="5.10" departSpeed="0.00" departDelay="3128.02" arrival="3534.00" arrivalLane="23891801#0_0" arrivalPos="274.92" arrivalSpeed="21.67" duration="402.00" routeLength="2166.13" waitingTime="206.00" waitingCount="10" stopTime="0.00" timeLoss="318.93" rerouteNo="5" devices="vehroute_taxi_9 tripinfo_taxi_9 routing_taxi_9" vType="veh_passenger" speedFactor="1.00" vaporized=""/>
    <tripinfo id="taxi_10" depart="3534.00" departLane="134319745#0_0" departPos="5.10" departSpeed="0.00" departDelay="3529.99" arrival="3793.00" arrivalLane="633946076_0" arrivalPos="43.95" arrivalSpeed="27.00" duration="259.00" routeLength="1976.02" waitingTime="88.00" waitingCount="5" stopTime="0.00" timeLoss="181.63" rerouteNo="1" devices="vehroute_taxi_10 tripinfo_taxi_10 routing_taxi_10" vType="veh_passenger" speedFactor="1.00" vaporized=""/>
    <tripinfo id="taxi_11" depart="3793.00" departLane="633946076_1" departPos="5.10" departSpeed="0.00" departDelay="3788.77" arrival="4005.00" arrivalLane="33116710#0_0" arrivalPos="188.31" arrivalSpeed="26.90" duration="212.00" routeLength="1247.84" waitingTime="102.00" waitingCount="5" stopTime="0.00" timeLoss="161.89" rerouteNo="1" devices="vehroute_taxi_11 tripinfo_taxi_11 routing_taxi_11" vType="veh_passenger" speedFactor="1.00" vaporized=""/>
    <tripinfo id="taxi_12" depart="4005.00" departLane="134319745#0_0" departPos="5.10" departSpeed="0.00" departDelay="4000.27" arrival="4723.00" arrivalLane="-373857680#1_0" arrivalPos="546.30" arrivalSpeed="27.49" duration="718.00" routeLength="6052.44" waitingTime="298.00" waitingCount="15" stopTime="0.00" timeLoss="487.40" rerouteNo="1" devices="vehroute_taxi_12 tripinfo_taxi_12 routing_taxi_12" vType="veh_passenger" speedFactor="1.00" vaporized=""/>
    <tripinfo id="taxi_13" depart="4723.00" departLane="583081972_0" departPos="5.10" departSpeed="0.00" departDelay="4718.24" arrival="5093.00" arrivalLane="-316912742_0" arrivalPos="123.88" arrivalSpeed="22.27" duration="370.00" routeLength="2515.61" waitingTime="174.00" waitingCount="7" stopTime="0.00" timeLoss="260.19" rerouteNo="1" devices="vehroute_taxi_13 tripinfo_taxi_13 routing_taxi_13" vType="veh_passenger" speedFactor="1.00" vaporized=""/>
    <tripinfo id="taxi_14" depart="5093.00" departLane="24098485#0_0" departPos="5.10" departSpeed="0.00" departDelay="5088.04" arrival="5351.00" arrivalLane="220306134#2_0" arrivalPos="70.15" arrivalSpeed="23.01" duration="258.00" routeLength="2899.65" waitingTime="65.00" waitingCount="4" stopTime="0.00" timeLoss="138.76" rerouteNo="1" devices="vehroute_taxi_14 tripinfo_taxi_14 routing_taxi_14" vType="veh_passenger" speedFactor="1.00" vaporized=""/>
    <tripinfo id="taxi_15" depart="5351.00" departLane="33116710#0_0" departPos="5.10" departSpeed="0.00" departDelay="5345.39" arrival="5681.00" arrivalLane="319345470#0_0" arrivalPos="103.39" arrivalSpeed="27.77" duration="330.00" routeLength="2299.46" waitingTime="135.00" waitingCount="9" stopTime="0.00" timeLoss="243.27" rerouteNo="1" devices="vehroute_taxi_15 tripinfo_taxi_15 routing_taxi_15" vType="veh_passenger" speedFactor="1.00" vaporized=""/>
    <tripinfo id="taxi_16" depart="5681.00" departLane="33116710#0_0" departPos="5.10" departSpeed="0.00" departDelay="5674.85" arrival="6052.00" arrivalLane="319345470#0_0" arrivalPos="103.39" arrivalSpeed="21.65" duration="371.00" routeLength="2299.46" waitingTime="172.00" waitingCount="9" stopTime="0.00" timeLoss="284.36" rerouteNo="1" devices="vehroute_taxi_16 tripinfo_taxi_16 routing_taxi_16" vType="veh_passenger" speedFactor="1.00" vaporized=""/>
    <tripinfo id="taxi_17" depart="6052.00" departLane="965387812#7_0" departPos="5.10" departSpeed="0.00" departDelay="6045.63" arrival="6271.00" arrivalLane="633946076_0" arrivalPos="43.95" arrivalSpeed="26.64" duration="219.00" routeLength="1560.60" waitingTime="97.00" waitingCount="6" stopTime="0.00" timeLoss="159.32" rerouteNo="1" devices="vehroute_taxi_17 tripinfo_taxi_17 routing_taxi_17" vType="veh_passenger" speedFactor="1.00" vaporized=""/>
    <tripinfo id="taxi_18" depart="6271.00" departLane="461207921#0_1" departPos="5.10" departSpeed="0.00" departDelay="6264.04" arrival="6629.00" arrivalLane="134319745#0_0" arrivalPos="121.88" arrivalSpeed="27.47" duration="358.00" routeLength="2768.73" waitingTime="123.00" waitingCount="11" stopTime="0.00" timeLoss="252.61" rerouteNo="5" devices="vehroute_taxi_18 tripinfo_taxi_18 routing_taxi_18" vType="veh_passenger" speedFactor="1.00" vaporized=""/>
    <tripinfo id="taxi_19" depart="6629.00" departLane="134319745#0_0" departPos="5.10" departSpeed="0.00" departDelay="6621.23" arrival="6896.00" arrivalLane="23891801#0_0" arrivalPos="274.92" arrivalSpeed="21.32" duration="267.00" routeLength="2166.13" waitingTime="108.00" waitingCount="6" stopTime="0.00" timeLoss="182.99" rerouteNo="9" devices="vehroute_taxi_19 tripinfo_taxi_19 routing_taxi_19" vType="veh_passenger" speedFactor="1.00" vaporized=""/>
    <tripinfo id="taxi_20" depart="6896.00" departLane="145857394#0_0" departPos="5.10" departSpeed="0.00" departDelay="6888.22" arrival="7216.00" arrivalLane="33116710#0_0" arrivalPos="188.31" arrivalSpeed="27.65" duration="320.00" routeLength="2662.87" waitingTime="102.00" waitingCount="9" stopTime="0.00" timeLoss="218.84" rerouteNo="3" devices="vehroute_taxi_20 tripinfo_taxi_20 routing_taxi_20" vType="veh_passenger" speedFactor="1.00" vaporized=""/>
    <tripinfo id="taxi_21" depart="7216.00" departLane="965387812#0_2" departPos="5.10" departSpeed="0.00" departDelay="7207.42" arrival="7599.00" arrivalLane="24098485#0_0" arrivalPos="131.92" arrivalSpeed="13.24" duration="383.00" routeLength="2537.64" waitingTime="166.00" waitingCount="11" stopTime="0.00" timeLoss="283.43" rerouteNo="1" devices="vehroute_taxi_21 tripinfo_taxi_21 routing_taxi_21" vType="veh_passenger" speedFactor="1.00" vaporized=""/>
    <tripinfo id="taxi_22" depart="7599.00" departLane="56720835#3_0" departPos="5.10" departSpeed="0.00" departDelay="7589.72" arrival="8066.00" arrivalLane="319345470#0_0" arrivalPos="103.39" arrivalSpeed="20.34" duration="467.00" routeLength="2997.96" waitingTime="187.00" waitingCount="14" stopTime="0.00" timeLoss="353.33" rerouteNo="7" devices="vehroute_taxi_22 tripinfo_taxi_22 routing_taxi_22" vType="veh_passenger" speedFactor="1.00" vaporized=""/>
    <tripinfo id="taxi_23" depart="8066.00" departLane="23891801#0_0" departPos="5.10" departSpeed="0.00" departDelay="8056.38" arrival="8280.00" arrivalLane="-283273061#9_0" arrivalPos="156.22" arrivalSpeed="21.06" duration="214.00" routeLength="2696.67" waitingTime="50.00" waitingCount="2" stopTime="0.00" timeLoss="99.42" rerouteNo="1" devices="vehroute_taxi_23 tripinfo_taxi_23 routing_taxi_23" vType="veh_passenger" speedFactor="1.00" vaporized=""/>
    <tripinfo id="taxi_24" depart="8280.00" departLane="134319745#0_0" departPos="5.10" departSpeed="0.00" departDelay="8270.22" arrival="8617.00" arrivalLane="56720835#3_0" arrivalPos="97.85" arrivalSpeed="20.30" duration="337.00" routeLength="1996.50" waitingTime="145.00" waitingCount="10" stopTime="0.00" timeLoss="263.55" rerouteNo="1" devices="vehroute_taxi_24 tripinfo_taxi_24 routing_taxi_24" vType="veh_passenger" speedFactor="1.00" vaporized=""/>
    <tripinfo id="taxi_25" depart="8617.00" departLane="220306134#2_3" departPos="5.10" departSpeed="0.00" departDelay="8606.27" arrival="8732.00" arrivalLane="461207921#0_1" arrivalPos="192.92" arrivalSpeed="21.61" duration="115.00" routeLength="785.99" waitingTime="43.00" waitingCount="2" stopTime="0.00" timeLoss="78.16" rerouteNo="1" devices="vehroute_taxi_25 tripinfo_taxi_25 routing_taxi_25" vType="veh_passenger" speedFactor="1.00" vaporized=""/>
    <tripinfo id="taxi_26" depart="8732.00" departLane="134319745#0_0" departPos="5.10" departSpeed="0.00" departDelay="8720.93" arrival="8873.00" arrivalLane="319345470#0_0" arrivalPos="103.39" arrivalSpeed="27.38" duration="141.00" routeLength="1229.55" waitingTime="55.00" waitingCount="3" stopTime="0.00" timeLoss="93.61" rerouteNo="1" devices="vehroute_taxi_26 tripinfo_taxi_26 routing_taxi_26" vType="veh_passenger" speedFactor="1.00" vaporized=""/>
    <tripinfo id="taxi_27" depart="8873.00" departLane="583081972_1" departPos="5.10" departSpeed="0.00" departDelay="8861.84" arrival="9644.00" arrivalLane="130145600#0_0" arrivalPos="94.65" arrivalSpeed="13.78" duration="771.00" routeLength="5101.83" waitingTime="368.00" waitingCount="18" stopTime="0.00" timeLoss="572.72" rerouteNo="1" devices="vehroute_taxi_27 tripinfo_taxi_27 routing_taxi_27" vType="veh_passenger" speedFactor="1.00" vaporized=""/>
    <tripinfo id="taxi_28" depart="9644.00" departLane="134319745#0_0" departPos="5.10" departSpeed="0.00" departDelay="9632.74" arrival="10008.00" arrivalLane="316907585_0" arrivalPos="675.76" arrivalSpeed="38.46" duration="364.00" routeLength="4021.49" waitingTime="123.00" waitingCount="7" stopTime="0.00" timeLoss="228.78" rerouteNo="1" devices="vehroute_taxi_28 tripinfo_taxi_28 routing_taxi_28" vType="veh_passenger" speedFactor="1.00" vaporized=""/>
    <tripinfo id="taxi_29" depart="10008.00" departLane="461207921#0_1" departPos="5.10" departSpeed="0.00" departDelay="9995.89" arrival="10345.00" arrivalLane="134319745#0_0" arrivalPos="121.88" arrivalSpeed="27.09" duration="337.00" routeLength="2651.50" waitingTime="134.00" waitingCount="8" stopTime="0.00" timeLoss="233.96" rerouteNo="6" devices="vehroute_taxi_29 tripinfo_taxi_29 routing_taxi_29" vType="veh_passenger" speedFactor="1.00" vaporized=""/>
    <tripinfo id="taxi_30" depart="10345.00" departLane="23891801#0_0" departPos="5.10" departSpeed="0.00" departDelay="10332.29" arrival="10605.00" arrivalLane="-283273061#9_0" arrivalPos="156.22" arrivalSpeed="21.27" duration="260.00" routeLength="2696.67" waitingTime="88.00" waitingCount="4" stopTime="0.00" timeLoss="144.93" rerouteNo="1" devices="vehroute_taxi_30 tripinfo_taxi_30 routing_taxi_30" vType="veh_passenger" speedFactor="1.00" vaporized=""/>
    <tripinfo id="taxi_31" depart="10605.00" departLane="583081972_1" departPos="5.10" departSpeed="0.00" departDelay="10591.48" arrival="10829.00" arrivalLane="-435657388_0" arrivalPos="48.43" arrivalSpeed="19.65" duration="224.00" routeLength="1727.32" waitingTime="100.00" waitingCount="4" stopTime="0.00" timeLoss="152.18" rerouteNo="1" devices="vehroute_taxi_31 tripinfo_taxi_31 routing_taxi_31" vType="veh_passenger" speedFactor="1.00" vaporized=""/>
    <tripinfo id="taxi_32" depart="10829.00" departLane="145857394#0_0" departPos="5.10" departSpeed="0.00" departDelay="10814.75" arrival="10954.00" arrivalLane="319345470#0_0" arrivalPos="103.39" arrivalSpeed="21.31" duration="125.00" routeLength="1168.25" waitingTime="31.00" waitingCount="4" stopTime="0.00" timeLoss="78.55" rerouteNo="1" devices="vehroute_taxi_32 tripinfo_taxi_32 routing_taxi_32" vType="veh_passenger" speedFactor="1.00" vaporized=""/>
    <tripinfo id="taxi_33" depart="10954.00" departLane="145857394#0_0" departPos="5.10" departSpeed="0.00" departDelay="10939.22" arrival="11356.00" arrivalLane="461207921#0_1" arrivalPos="192.92" arrivalSpeed="21.23" duration="402.00" routeLength="3204.65" waitingTime="150.00" waitingCount="8" stopTime="0.00" timeLoss="271.58" rerouteNo="1" devices="vehroute_taxi_33 tripinfo_taxi_33 routing_taxi_33" vType="veh_passenger" speedFactor="1.00" vaporized=""/>
    <tripinfo id="taxi_34" depart="11356.00" departLane="1031291396#1_0" departPos="5.10" departSpeed="0.00" departDelay="11340.24" arrival="11985.00" arrivalLane="316907585_0" arrivalPos="675.76" arrivalSpeed="38.63" duration="629.00" routeLength="4928.17" waitingTime="309.00" waitingCount="13" stopTime="0.00" timeLoss="461.67" rerouteNo="1" devices="vehroute_taxi_34 tripinfo_taxi_34 routing_taxi_34" vType="veh_passenger" speedFactor="1.00" vaporized=""/>
    <tripinfo id="taxi_35" depart="11985.00" departLane="1031291396#1_0" departPos="5.10" departSpeed="0.00" departDelay="11968.86" arrival="12230.00" arrivalLane="33116710#0_0" arrivalPos="188.31" arrivalSpeed="27.16" duration="245.00" routeLength="2173.54" waitingTime="68.00" waitingCount="7" stopTime="0.00" timeLoss="163.82" rerouteNo="1" devices="vehroute_taxi_35 tripinfo_taxi_35 routing_taxi_35" vType="veh_passenger" speedFactor="1.00" vaporized=""/>
    <tripinfo id="taxi_36" depart="12230.00" departLane="23891801#0_0" departPos="5.10" departSpeed="0.00" departDelay="12213.31" arrival="12512.00" arrivalLane="319345470#0_0" arrivalPos="103.39" arrivalSpeed="22.22" duration="282.00" routeLength="2410.69" waitingTime="87.00" waitingCount="6" stopTime="0.00" timeLoss="175.98" rerouteNo="1" devices="vehroute_taxi_36 tripinfo_taxi_36 routing_taxi_36" vType="veh_passenger" speedFactor="1.00" vaporized=""/>
    <tripinfo id="taxi_37" depart="12512.00" departLane="145857394#0_0" departPos="5.10" departSpeed="0.00" departDelay="12494.48" arrival="12799.00" arrivalLane="633946076_0" arrivalPos="43.95" arrivalSpeed="27.72" duration="287.00" routeLength="2284.42" waitingTime="81.00" waitingCount="8" stopTime="0.00" timeLoss="197.91" rerouteNo="5" devices="vehroute_taxi_37 tripinfo_taxi_37 routing_taxi_37" vType="veh_passenger" speedFactor="1.00" vaporized=""/>
    <tripinfo id="taxi_38" depart="12799.00" departLane="134319745#0_0" departPos="5.10" departSpeed="0.00" departDelay="12780.86" arrival="12901.00" arrivalLane="319345470#0_0" arrivalPos="103.39" arrivalSpeed="27.71" duration="102.00" routeLength="1229.55" waitingTime="11.00" waitingCount="3" stopTime="0.00" timeLoss="54.37" rerouteNo="1" devices="vehroute_taxi_38 tripinfo_taxi_38 routing_taxi_38" vType="veh_passenger" speedFactor="1.00" vaporized=""/>
    <tripinfo id="taxi_39" depart="12901.00" departLane="461207921#0_1" departPos="5.10" departSpeed="0.00" departDelay="12882.00" arrival="13011.00" arrivalLane="56720835#3_2" arrivalPos="97.85" arrivalSpeed="20.43" duration="110.00" routeLength="1086.73" waitingTime="19.00" waitingCount="2" stopTime="0.00" timeLoss="64.54" rerouteNo="1" devices="vehroute_taxi_39 tripinfo_taxi_39 routing_taxi_39" vType="veh_passenger" speedFactor="1.00" vaporized=""/>
    <tripinfo id="taxi_40" depart="13011.00" departLane="145857394#0_2" departPos="5.10" departSpeed="0.00" departDelay="12991.43" arrival="14022.00" arrivalLane="24110381#0_0" arrivalPos="133.97" arrivalSpeed="13.45" duration="1011.00" routeLength="7006.97" waitingTime="545.00" waitingCount="16" stopTime="0.00" timeLoss="739.77" rerouteNo="1" devices="vehroute_taxi_40 tripinfo_taxi_40 routing_taxi_40" vType="veh_passenger" speedFactor="1.00" vaporized=""/>
    <tripinfo id="taxi_41" depart="14022.00" departLane="145857394#0_2" departPos="5.10" departSpeed="0.00" departDelay="14001.72" arrival="14349.00" arrivalLane="24088986#2_0" arrivalPos="38.09" arrivalSpeed="13.70" duration="327.00" routeLength="2522.35" waitingTime="126.00" waitingCount="6" stopTime="0.00" timeLoss="218.68" rerouteNo="3" devices="vehroute_taxi_41 tripinfo_taxi_41 routing_taxi_41" vType="veh_passenger" speedFactor="1.00" vaporized=""/>
    <tripinfo id="taxi_42" depart="14349.00" departLane="145857394#0_0" departPos="5.10" departSpeed="0.00" departDelay="14328.68" arrival="14488.00" arrivalLane="319345470#0_0" arrivalPos="103.39" arrivalSpeed="22.38" duration="139.00" routeLength="1168.25" waitingTime="32.00" waitingCount="5" stopTime="0.00" timeLoss="91.96" rerouteNo="1" devices="vehroute_taxi_42 tripinfo_taxi_42 routing_taxi_42" vType="veh_passenger" speedFactor="1.00" vaporized=""/>
    <tripinfo id="taxi_43" depart="14488.00" departLane="145857394#0_2" departPos="5.10" departSpeed="0.00" departDelay="14467.45" arrival="14630.00" arrivalLane="-283273061#9_0" arrivalPos="156.22" arrivalSpeed="21.73" duration="142.00" routeLength="1450.39" waitingTime="32.00" waitingCount="4" stopTime="0.00" timeLoss="76.96" rerouteNo="1" devices="vehroute_taxi_43 tripinfo_taxi_43 routing_taxi_43" vType="veh_passenger" speedFactor="1.00" vaporized=""/>
    <tripinfo id="taxi_44" depart="14630.00" departLane="56720835#3_2" departPos="5.10" departSpeed="0.00" departDelay="14609.16" arrival="14894.00" arrivalLane="-316912742_0" arrivalPos="123.88" arrivalSpeed="24.47" duration="264.00" routeLength="1293.81" waitingTime="122.00" waitingCount="7" stopTime="0.00" timeLoss="198.07" rerouteNo="1" devices="vehroute_taxi_44 tripinfo_taxi_44 routing_taxi_44" vType="veh_passenger" speedFactor="1.00" vaporized=""/>
    <tripinfo id="taxi_45" depart="14894.00" departLane="56716746_0" departPos="5.10" departSpeed="0.00" departDelay="14873.08" arrival="15157.00" arrivalLane="253710123#12_0" arrivalPos="94.66" arrivalSpeed="13.85" duration="263.00" routeLength="2965.86" waitingTime="68.00" waitingCount="5" stopTime="0.00" timeLoss="135.37" rerouteNo="1" devices="vehroute_taxi_45 tripinfo_taxi_45 routing_taxi_45" vType="veh_passenger" speedFactor="1.00" vaporized=""/>
    <tripinfo id="taxi_46" depart="15157.00" departLane="145857394#0_0" departPos="5.10" departSpeed="0.00" departDelay="15135.85" arrival="15421.00" arrivalLane="220306134#2_0" arrivalPos="70.15" arrivalSpeed="23.62" duration="264.00" routeLength="2590.39" waitingTime="73.00" waitingCount="6" stopTime="0.00" timeLoss="163.01" rerouteNo="15" devices="vehroute_taxi_46 tripinfo_taxi_46 routing_taxi_46" vType="veh_passenger" speedFactor="1.00" vaporized=""/>
    <tripinfo id="taxi_47" depart="15421.00" departLane="23891801#0_0" departPos="5.10" departSpeed="0.00" departDelay="15399.74" arrival="15631.00" arrivalLane="-283273061#9_0" arrivalPos="156.22" arrivalSpeed="21.16" duration="210.00" routeLength="2696.67" waitingTime="43.00" waitingCount="3" stopTime="0.00" timeLoss="94.08" rerouteNo="1" devices="vehroute_taxi_47 tripinfo_taxi_47 routing_taxi_47" vType="veh_passenger" speedFactor="1.00" vaporized=""/>
    <tripinfo id="taxi_48" depart="15631.00" departLane="134319745#0_0" departPos="5.10" departSpeed="0.00" departDelay="15609.47" arrival="16018.00" arrivalLane="165439078#5_0" arrivalPos="68.18" arrivalSpeed="13.81" duration="387.00" routeLength="3401.10" waitingTime="139.00" waitingCount="9" stopTime="0.00" timeLoss="251.92" rerouteNo="1" devices="vehroute_taxi_48 tripinfo_taxi_48 routing_taxi_48" vType="veh_passenger" speedFactor="1.00" vaporized=""/>
    <tripinfo id="taxi_49" depart="16018.00" departLane="23891801#0_0" departPos="5.10" departSpeed="0.00" departDelay="15995.83" arrival="16390.00" arrivalLane="633946076_0" arrivalPos="43.95" arrivalSpeed="26.92" duration="372.00" routeLength="2755.32" waitingTime="169.00" waitingCount="5" stopTime="0.00" timeLoss="256.61" rerouteNo="3" devices="vehroute_taxi_49 tripinfo_taxi_49 routing_taxi_49" vType="veh_passenger" speedFactor="1.00" vaporized=""/>
    <tripinfo id="taxi_50" depart="16390.00" departLane="134319745#0_0" departPos="5.10" departSpeed="0.00" departDelay="16367.47" arrival="16770.00" arrivalLane="316907585_0" arrivalPos="675.76" arrivalSpeed="38.15" duration="380.00" routeLength="4021.49" waitingTime="146.00" waitingCount="7" stopTime="0.00" timeLoss="245.31" rerouteNo="3" devices="vehroute_taxi_50 tripinfo_taxi_50 routing_taxi_50" vType="veh_passenger" speedFactor="1.00" vaporized=""/>
    <tripinfo id="taxi_51" depart="16770.00" departLane="583081972_1" departPos="5.10" departSpeed="0.00" departDelay="16747.10" arrival="17003.00" arrivalLane="134319745#0_0" arrivalPos="121.88" arrivalSpeed="27.37" duration="233.00" routeLength="1627.02" waitingTime="96.00" waitingCount="7" stopTime="0.00" timeLoss="171.62" rerouteNo="1" devices="vehroute_taxi_51 tripinfo_taxi_51 routing_taxi_51" vType="veh_passenger" speedFactor="1.00" vaporized=""/>
    <tripinfo id="taxi_52" depart="17003.00" departLane="23891801#0_0" departPos="5.10" departSpeed="0.00" departDelay="16979.89" arrival="17305.00" arrivalLane="633946076_0" arrivalPos="43.95" arrivalSpeed="27.12" duration="302.00" routeLength="2755.32" waitingTime="95.00" waitingCount="6" stopTime="0.00" timeLoss="187.87" rerouteNo="6" devices="vehroute_taxi_52 tripinfo_taxi_52 routing_taxi_52" vType="veh_passenger" speedFactor="1.00" vaporized=""/>
    <tripinfo id="taxi_53" depart="17305.00" departLane="134319745#0_0" departPos="5.10" departSpeed="0.00" departDelay="17281.62" arrival="17607.00" arrivalLane="253737720#0_1" arrivalPos="224.66" arrivalSpeed="13.30" duration="302.00" routeLength="2519.21" waitingTime="106.00" waitingCount="6" stopTime="0.00" timeLoss="194.35" rerouteNo="1" devices="vehroute_taxi_53 tripinfo_taxi_53 routing_taxi_53" vType="veh_passenger" speedFactor="1.00" vaporized=""/>
    <tripinfo id="taxi_54" depart="17607.00" departLane="583081972_1" departPos="5.10" departSpeed="0.00" departDelay="17582.68" arrival="17873.00" arrivalLane="134319745#0_0" arrivalPos="121.88" arrivalSpeed="22.25" duration="266.00" routeLength="1627.02" waitingTime="127.00" waitingCount="7" stopTime="0.00" timeLoss="205.08" rerouteNo="1" devices="vehroute_taxi_54 tripinfo_taxi_54 routing_taxi_54" vType="veh_passenger" speedFactor="1.00" vaporized=""/>
    <tripinfo id="taxi_55" depart="17873.00" departLane="134319745#0_0" departPos="5.10" departSpeed="0.00" departDelay="17848.03" arrival="18160.00" arrivalLane="965387812#7_0" arrivalPos="109.17" arrivalSpeed="27.67" duration="287.00" routeLength="1768.88" waitingTime="144.00" waitingCount="6" stopTime="0.00" timeLoss="221.42" rerouteNo="1" devices="vehroute_taxi_55 tripinfo_taxi_55 routing_taxi_55" vType="veh_passenger" speedFactor="1.00" vaporized=""/>
    <tripinfo id="taxi_56" depart="18160.00" departLane="134319745#0_0" departPos="5.10" departSpeed="0.00" departDelay="18134.43" arrival="18442.00" arrivalLane="633946076_0" arrivalPos="43.95" arrivalSpeed="27.43" duration="282.00" routeLength="1976.02" waitingTime="106.00" waitingCount="6" stopTime="0.00" timeLoss="204.04" rerouteNo="3" devices="vehroute_taxi_56 tripinfo_taxi_56 routing_taxi_56" vType="veh_passenger" speedFactor="1.00" vaporized=""/>
    <tripinfo id="taxi_57" depart="18442.00" departLane="583081972_1" departPos="5.10" departSpeed="0.00" departDelay="18416.25" arrival="18670.00" arrivalLane="134319745#0_0" arrivalPos="121.88" arrivalSpeed="24.63" duration="228.00" routeLength="1627.02" waitingTime="91.00" waitingCount="6" stopTime="0.00" timeLoss="166.29" rerouteNo="1" devices="vehroute_taxi_57 tripinfo_taxi_57 routing_taxi_57" vType="veh_passenger" speedFactor="1.00" vaporized=""/>
    <tripinfo id="taxi_58" depart="18670.00" departLane="134319745#0_0" departPos="5.10" departSpeed="0.00" departDelay="18643.53" arrival="18788.00" arrivalLane="33116710#0_0" arrivalPos="188.31" arrivalSpeed="27.20" duration="118.00" routeLength="1276.77" waitingTime="23.00" waitingCount="3" stopTime="0.00" timeLoss="68.35" rerouteNo="1" devices="vehroute_taxi_58 tripinfo_taxi_58 routing_taxi_58" vType="veh_passenger" speedFactor="1.00" vaporized=""/>
    <tripinfo id="taxi_59" depart="18788.00" departLane="461207921#0_1" departPos="5.10" departSpeed="0.00" departDelay="18761.36" arrival="18937.00" arrivalLane="56720835#3_2" arrivalPos="97.85" arrivalSpeed="19.09" duration="149.00" routeLength="1086.73" waitingTime="52.00" waitingCount="4" stopTime="0.00" timeLoss="104.88" rerouteNo="1" devices="vehroute_taxi_59 tripinfo_taxi_59 routing_taxi_59" vType="veh_passenger" speedFactor="1.00" vaporized=""/>
    <tripinfo id="taxi_60" depart="18937.00" departLane="134319745#0_0" departPos="5.10" departSpeed="0.00" departDelay="18909.98" arrival="19335.00" arrivalLane="461207921#0_1" arrivalPos="192.92" arrivalSpeed="20.93" duration="398.00" routeLength="2963.60" waitingTime="169.00" waitingCount="7" stopTime="0.00" timeLoss="278.96" rerouteNo="30" devices="vehroute_taxi_60 tripinfo_taxi_60 routing_taxi_60" vType="veh_passenger" speedFactor="1.00" vaporized=""/>
    <tripinfo id="taxi_61" depart="19335.00" departLane="56720835#3_0" departPos="5.10" departSpeed="0.00" departDelay="19306.99" arrival="19580.00" arrivalLane="134319745#0_0" arrivalPos="121.88" arrivalSpeed="25.99" duration="245.00" routeLength="1986.87" waitingTime="94.00" waitingCount="5" stopTime="0.00" timeLoss="169.17" rerouteNo="3" devices="vehroute_taxi_61 tripinfo_taxi_61 routing_taxi_61" vType="veh_passenger" speedFactor="1.00" vaporized=""/>