<?xml version="1.0" encoding="UTF-8"?>

<!-- generated on 2022-11-28 19:37:20 by Eclipse SUMO GUI Version v1_15_0+0450-e1b3cbf60b2
<configuration xmlns:xsi="http://www.w3.org/2001/XMLSchema-instance" xsi:noNamespaceSchemaLocation="http://sumo.dlr.de/xsd/sumoConfiguration.xsd">

    <input>
        <net-file value="/Users/mikesoukup/Desktop/NU MSDS/MSDS 452/TrafficAnalysis_MSDS452/sumo/tools/ChicagoNetworkReduced/osm.net.xml"/>
        <route-files value="/Users/mikesoukup/Desktop/NU MSDS/MSDS 452/TrafficAnalysis_MSDS452/sumo/tools/ChicagoNetworkReduced/osm.passenger.trips.xml"/>
    </input>

    <output>
        <tripinfo-output value="/Users/mikesoukup/Desktop/NU MSDS/MSDS 452/TrafficAnalysis_MSDS452/sumo/tools/ChicagoNetworkReduced/tripinfo.xml"/>
        <vehroute-output value="/Users/mikesoukup/Desktop/NU MSDS/MSDS 452/TrafficAnalysis_MSDS452/sumo/tools/ChicagoNetworkReduced/vehroutes.xml"/>
        <collision-output value="/Users/mikesoukup/Desktop/NU MSDS/MSDS 452/TrafficAnalysis_MSDS452/sumo/tools/ChicagoNetworkReduced/collisions.xml"/>
        <statistic-output value="/Users/mikesoukup/Desktop/NU MSDS/MSDS 452/TrafficAnalysis_MSDS452/sumo/tools/ChicagoNetworkReduced/sim_stats_out.xml"/>
    </output>

    <processing>
        <ignore-route-errors value="true"/>
    </processing>

    <routing>
        <device.rerouting.adaptation-steps value="18"/>
        <device.rerouting.adaptation-interval value="10"/>
    </routing>

    <report>
        <verbose value="true"/>
        <duration-log.statistics value="true"/>
        <no-step-log value="true"/>
    </report>

    <gui_only>
        <gui-settings-file value="/Users/mikesoukup/Desktop/NU MSDS/MSDS 452/TrafficAnalysis_MSDS452/sumo/tools/ChicagoNetworkReduced/osm.view.xml"/>
    </gui_only>

</configuration>
-->

<tripinfos xmlns:xsi="http://www.w3.org/2001/XMLSchema-instance" xsi:noNamespaceSchemaLocation="http://sumo.dlr.de/xsd/tripinfo_file.xsd">
    <tripinfo id="taxi_25" depart="11.00" departLane="220306134#2_3" departPos="5.10" departSpeed="0.00" departDelay="0.27" arrival="97.00" arrivalLane="461207921#0_0" arrivalPos="192.92" arrivalSpeed="14.07" duration="86.00" routeLength="785.99" waitingTime="15.00" waitingCount="1" stopTime="0.00" timeLoss="49.06" rerouteNo="1" devices="vehroute_taxi_25 tripinfo_taxi_25 routing_taxi_25" vType="veh_passenger" speedFactor="1.00" vaporized=""/>
    <tripinfo id="taxi_32" depart="15.00" departLane="145857394#0_0" departPos="5.10" departSpeed="0.00" departDelay="0.75" arrival="124.00" arrivalLane="319345470#0_0" arrivalPos="103.39" arrivalSpeed="20.51" duration="109.00" routeLength="1168.25" waitingTime="11.00" waitingCount="3" stopTime="0.00" timeLoss="62.72" rerouteNo="1" devices="vehroute_taxi_32 tripinfo_taxi_32 routing_taxi_32" vType="veh_passenger" speedFactor="1.00" vaporized=""/>
    <tripinfo id="taxi_94" depart="46.00" departLane="461207921#0_1" departPos="5.10" departSpeed="0.00" departDelay="1.85" arrival="138.00" arrivalLane="220306134#2_3" arrivalPos="70.15" arrivalSpeed="22.57" duration="92.00" routeLength="759.55" waitingTime="28.00" waitingCount="1" stopTime="0.00" timeLoss="59.53" rerouteNo="1" devices="vehroute_taxi_94 tripinfo_taxi_94 routing_taxi_94" vType="veh_passenger" speedFactor="1.00" vaporized=""/>
    <tripinfo id="taxi_146" depart="71.00" departLane="461207921#0_1" departPos="5.10" departSpeed="0.00" departDelay="0.05" arrival="141.00" arrivalLane="220306134#2_3" arrivalPos="70.15" arrivalSpeed="22.84" duration="70.00" routeLength="759.55" waitingTime="6.00" waitingCount="1" stopTime="0.00" timeLoss="37.99" rerouteNo="1" devices="vehroute_taxi_146 tripinfo_taxi_146 routing_taxi_146" vType="veh_passenger" speedFactor="1.00" vaporized=""/>
    <tripinfo id="taxi_75" depart="37.00" departLane="1031291396#1_0" departPos="5.10" departSpeed="0.00" departDelay="1.65" arrival="152.00" arrivalLane="1049318471#0_1" arrivalPos="77.85" arrivalSpeed="27.59" duration="115.00" routeLength="1010.50" waitingTime="33.00" waitingCount="3" stopTime="0.00" timeLoss="74.21" rerouteNo="1" devices="vehroute_taxi_75 tripinfo_taxi_75 routing_taxi_75" vType="veh_passenger" speedFactor="1.00" vaporized=""/>
    <tripinfo id="taxi_43" depart="26.00" departLane="145857394#0_2" departPos="5.10" departSpeed="0.00" departDelay="5.45" arrival="155.00" arrivalLane="-283273061#9_0" arrivalPos="156.22" arrivalSpeed="22.09" duration="129.00" routeLength="1450.39" waitingTime="23.00" waitingCount="2" stopTime="0.00" timeLoss="63.34" rerouteNo="1" devices="vehroute_taxi_43 tripinfo_taxi_43 routing_taxi_43" vType="veh_passenger" speedFactor="1.00" vaporized=""/>
    <tripinfo id="taxi_42" depart="24.00" departLane="145857394#0_0" departPos="5.10" departSpeed="0.00" departDelay="3.68" arrival="162.00" arrivalLane="319345470#0_0" arrivalPos="103.39" arrivalSpeed="20.07" duration="138.00" routeLength="1168.25" waitingTime="35.00" waitingCount="4" stopTime="0.00" timeLoss="91.01" rerouteNo="1" devices="vehroute_taxi_42 tripinfo_taxi_42 routing_taxi_42" vType="veh_passenger" speedFactor="1.00" vaporized=""/>
    <tripinfo id="taxi_11" depart="5.00" departLane="633946076_1" departPos="5.10" departSpeed="0.00" departDelay="0.77" arrival="185.00" arrivalLane="33116710#0_0" arrivalPos="188.31" arrivalSpeed="26.86" duration="180.00" routeLength="1247.84" waitingTime="80.00" waitingCount="4" stopTime="0.00" timeLoss="130.23" rerouteNo="1" devices="vehroute_taxi_11 tripinfo_taxi_11 routing_taxi_11" vType="veh_passenger" speedFactor="1.00" vaporized=""/>
    <tripinfo id="taxi_163" depart="80.00" departLane="965387812#0_0" departPos="5.10" departSpeed="0.00" departDelay="2.02" arrival="185.00" arrivalLane="220306134#2_0" arrivalPos="70.15" arrivalSpeed="26.63" duration="105.00" routeLength="1297.72" waitingTime="10.00" waitingCount="2" stopTime="0.00" timeLoss="55.35" rerouteNo="1" devices="vehroute_taxi_163 tripinfo_taxi_163 routing_taxi_163" vType="veh_passenger" speedFactor="1.00" vaporized=""/>
    <tripinfo id="taxi_76" depart="36.00" departLane="220306134#2_0" departPos="5.10" departSpeed="0.00" departDelay="0.25" arrival="188.00" arrivalLane="633946076_0" arrivalPos="43.95" arrivalSpeed="8.10" duration="152.00" routeLength="1715.03" waitingTime="38.00" waitingCount="2" stopTime="0.00" timeLoss="82.96" rerouteNo="1" devices="vehroute_taxi_76 tripinfo_taxi_76 routing_taxi_76" vType="veh_passenger" speedFactor="1.00" vaporized=""/>
    <tripinfo id="taxi_165" depart="80.00" departLane="56720835#3_2" departPos="5.10" departSpeed="0.00" departDelay="0.25" arrival="191.00" arrivalLane="1040118849#0_0" arrivalPos="165.13" arrivalSpeed="12.62" duration="111.00" routeLength="1016.18" waitingTime="25.00" waitingCount="3" stopTime="0.00" timeLoss="59.81" rerouteNo="1" devices="vehroute_taxi_165 tripinfo_taxi_165 routing_taxi_165" vType="veh_passenger" speedFactor="1.00" vaporized=""/>
    <tripinfo id="taxi_17" depart="7.00" departLane="965387812#7_0" departPos="5.10" departSpeed="0.00" departDelay="0.63" arrival="203.00" arrivalLane="633946076_0" arrivalPos="43.95" arrivalSpeed="19.96" duration="196.00" routeLength="1560.60" waitingTime="70.00" waitingCount="5" stopTime="0.00" timeLoss="136.40" rerouteNo="1" devices="vehroute_taxi_17 tripinfo_taxi_17 routing_taxi_17" vType="veh_passenger" speedFactor="1.00" vaporized=""/>
    <tripinfo id="taxi_39" depart="19.00" departLane="461207921#0_1" departPos="5.10" departSpeed="0.00" departDelay="0.00" arrival="204.00" arrivalLane="56720835#3_2" arrivalPos="97.85" arrivalSpeed="20.36" duration="185.00" routeLength="1086.73" waitingTime="76.00" waitingCount="5" stopTime="0.00" timeLoss="139.61" rerouteNo="1" devices="vehroute_taxi_39 tripinfo_taxi_39 routing_taxi_39" vType="veh_passenger" speedFactor="1.00" vaporized=""/>
    <tripinfo id="taxi_90" depart="43.00" departLane="461207921#0_1" departPos="5.10" departSpeed="0.00" departDelay="0.80" arrival="207.00" arrivalLane="583081972_0" arrivalPos="189.56" arrivalSpeed="27.03" duration="164.00" routeLength="1577.16" waitingTime="39.00" waitingCount="3" stopTime="0.00" timeLoss="97.14" rerouteNo="1" devices="vehroute_taxi_90 tripinfo_taxi_90 routing_taxi_90" vType="veh_passenger" speedFactor="1.00" vaporized=""/>
    <tripinfo id="taxi_44" depart="21.00" departLane="56720835#3_2" departPos="5.10" departSpeed="0.00" departDelay="0.16" arrival="208.00" arrivalLane="-316912742_0" arrivalPos="123.88" arrivalSpeed="23.25" duration="187.00" routeLength="1293.81" waitingTime="59.00" waitingCount="3" stopTime="0.00" timeLoss="121.28" rerouteNo="1" devices="vehroute_taxi_44 tripinfo_taxi_44 routing_taxi_44" vType="veh_passenger" speedFactor="1.00" vaporized=""/>
    <tripinfo id="taxi_58" depart="50.00" departLane="134319745#0_0" departPos="5.10" departSpeed="0.00" departDelay="23.53" arrival="208.00" arrivalLane="33116710#0_0" arrivalPos="188.31" arrivalSpeed="26.99" duration="158.00" routeLength="1276.77" waitingTime="39.00" waitingCount="4" stopTime="0.00" timeLoss="108.51" rerouteNo="1" devices="vehroute_taxi_58 tripinfo_taxi_58 routing_taxi_58" vType="veh_passenger" speedFactor="1.00" vaporized=""/>
    <tripinfo id="taxi_141" depart="69.00" departLane="1040118849#0_1" departPos="5.10" departSpeed="0.00" departDelay="0.37" arrival="209.00" arrivalLane="24098485#0_0" arrivalPos="131.92" arrivalSpeed="12.64" duration="140.00" routeLength="1326.40" waitingTime="19.00" waitingCount="4" stopTime="0.00" timeLoss="77.31" rerouteNo="1" devices="vehroute_taxi_141 tripinfo_taxi_141 routing_taxi_141" vType="veh_passenger" speedFactor="1.00" vaporized=""/>
    <tripinfo id="taxi_155" depart="77.00" departLane="461207921#0_1" departPos="5.10" departSpeed="0.00" departDelay="1.55" arrival="220.00" arrivalLane="583081972_0" arrivalPos="189.56" arrivalSpeed="16.95" duration="143.00" routeLength="1577.16" waitingTime="8.00" waitingCount="2" stopTime="0.00" timeLoss="77.09" rerouteNo="1" devices="vehroute_taxi_155 tripinfo_taxi_155 routing_taxi_155" vType="veh_passenger" speedFactor="1.00" vaporized=""/>
    <tripinfo id="taxi_151" depart="76.00" departLane="1031291396#1_0" departPos="5.10" departSpeed="0.00" departDelay="2.27" arrival="223.00" arrivalLane="1049318471#0_1" arrivalPos="77.85" arrivalSpeed="27.13" duration="147.00" routeLength="1010.50" waitingTime="47.00" waitingCount="5" stopTime="0.00" timeLoss="105.95" rerouteNo="1" devices="vehroute_taxi_151 tripinfo_taxi_151 routing_taxi_151" vType="veh_passenger" speedFactor="1.00" vaporized=""/>
    <tripinfo id="taxi_70" depart="33.00" departLane="153561203#0_0" departPos="5.10" departSpeed="0.00" departDelay="0.65" arrival="224.00" arrivalLane="56720835#3_1" arrivalPos="97.85" arrivalSpeed="27.34" duration="191.00" routeLength="1519.85" waitingTime="53.00" waitingCount="5" stopTime="0.00" timeLoss="131.46" rerouteNo="1" devices="vehroute_taxi_70 tripinfo_taxi_70 routing_taxi_70" vType="veh_passenger" speedFactor="1.00" vaporized=""/>
    <tripinfo id="taxi_64" depart="30.00" departLane="153561203#0_0" departPos="5.10" departSpeed="0.00" departDelay="0.11" arrival="225.00" arrivalLane="56720835#3_0" arrivalPos="97.85" arrivalSpeed="27.47" duration="195.00" routeLength="1519.85" waitingTime="60.00" waitingCount="6" stopTime="0.00" timeLoss="136.01" rerouteNo="1" devices="vehroute_taxi_64 tripinfo_taxi_64 routing_taxi_64" vType="veh_passenger" speedFactor="1.00" vaporized=""/>
    <tripinfo id="taxi_77" depart="37.00" departLane="24106450#6_0" departPos="5.10" departSpeed="0.00" departDelay="0.34" arrival="225.00" arrivalLane="294395159#0_0" arrivalPos="814.07" arrivalSpeed="21.28" duration="188.00" routeLength="1940.49" waitingTime="55.00" waitingCount="3" stopTime="0.00" timeLoss="95.35" rerouteNo="1" devices="vehroute_taxi_77 tripinfo_taxi_77 routing_taxi_77" vType="veh_passenger" speedFactor="1.00" vaporized=""/>
    <tripinfo id="taxi_23" depart="10.00" departLane="23891801#0_0" departPos="5.10" departSpeed="0.00" departDelay="0.38" arrival="227.00" arrivalLane="-283273061#9_0" arrivalPos="156.22" arrivalSpeed="21.02" duration="217.00" routeLength="2696.67" waitingTime="51.00" waitingCount="3" stopTime="0.00" timeLoss="102.71" rerouteNo="1" devices="vehroute_taxi_23 tripinfo_taxi_23 routing_taxi_23" vType="veh_passenger" speedFactor="1.00" vaporized=""/>
    <tripinfo id="taxi_30" depart="13.00" departLane="23891801#0_0" departPos="5.10" departSpeed="0.00" departDelay="0.29" arrival="229.00" arrivalLane="-283273061#9_0" arrivalPos="156.22" arrivalSpeed="21.60" duration="216.00" routeLength="2696.67" waitingTime="46.00" waitingCount="3" stopTime="0.00" timeLoss="99.65" rerouteNo="1" devices="vehroute_taxi_30 tripinfo_taxi_30 routing_taxi_30" vType="veh_passenger" speedFactor="1.00" vaporized=""/>
    <tripinfo id="taxi_68" depart="59.00" departLane="134319745#0_0" departPos="5.10" departSpeed="0.00" departDelay="27.23" arrival="230.00" arrivalLane="145857394#0_0" arrivalPos="102.18" arrivalSpeed="20.53" duration="171.00" routeLength="1494.71" waitingTime="30.00" waitingCount="4" stopTime="0.00" timeLoss="113.73" rerouteNo="1" devices="vehroute_taxi_68 tripinfo_taxi_68 routing_taxi_68" vType="veh_passenger" speedFactor="1.00" vaporized=""/>
    <tripinfo id="taxi_107" depart="51.00" departLane="23891801#0_0" departPos="5.10" departSpeed="0.00" departDelay="0.07" arrival="230.00" arrivalLane="965387812#7_1" arrivalPos="109.17" arrivalSpeed="26.84" duration="179.00" routeLength="1572.94" waitingTime="43.00" waitingCount="5" stopTime="0.00" timeLoss="112.30" rerouteNo="1" devices="vehroute_taxi_107 tripinfo_taxi_107 routing_taxi_107" vType="veh_passenger" speedFactor="1.00" vaporized=""/>
    <tripinfo id="taxi_38" depart="31.00" departLane="134319745#0_0" departPos="5.10" departSpeed="0.00" departDelay="12.86" arrival="238.00" arrivalLane="319345470#0_1" arrivalPos="103.39" arrivalSpeed="21.08" duration="207.00" routeLength="1229.55" waitingTime="92.00" waitingCount="5" stopTime="0.00" timeLoss="160.03" rerouteNo="1" devices="vehroute_taxi_38 tripinfo_taxi_38 routing_taxi_38" vType="veh_passenger" speedFactor="1.00" vaporized=""/>
    <tripinfo id="taxi_59" depart="27.00" departLane="461207921#0_1" departPos="5.10" departSpeed="0.00" departDelay="0.36" arrival="238.00" arrivalLane="56720835#3_2" arrivalPos="97.85" arrivalSpeed="18.91" duration="211.00" routeLength="1086.73" waitingTime="93.00" waitingCount="6" stopTime="0.00" timeLoss="166.53" rerouteNo="1" devices="vehroute_taxi_59 tripinfo_taxi_59 routing_taxi_59" vType="veh_passenger" speedFactor="1.00" vaporized=""/>
    <tripinfo id="taxi_26" depart="22.00" departLane="134319745#0_0" departPos="5.10" departSpeed="0.00" departDelay="10.93" arrival="239.00" arrivalLane="319345470#0_0" arrivalPos="103.39" arrivalSpeed="19.05" duration="217.00" routeLength="1229.55" waitingTime="103.00" waitingCount="5" stopTime="0.00" timeLoss="169.29" rerouteNo="1" devices="vehroute_taxi_26 tripinfo_taxi_26 routing_taxi_26" vType="veh_passenger" speedFactor="1.00" vaporized=""/>
    <tripinfo id="taxi_156" depart="76.00" departLane="145857394#0_0" departPos="5.10" departSpeed="0.00" departDelay="0.32" arrival="240.00" arrivalLane="319345470#0_0" arrivalPos="103.39" arrivalSpeed="21.35" duration="164.00" routeLength="1168.25" waitingTime="39.00" waitingCount="7" stopTime="0.00" timeLoss="117.45" rerouteNo="1" devices="vehroute_taxi_156 tripinfo_taxi_156 routing_taxi_156" vType="veh_passenger" speedFactor="1.00" vaporized=""/>
    <tripinfo id="taxi_183" depart="89.00" departLane="56720835#3_2" departPos="5.10" departSpeed="0.00" departDelay="0.36" arrival="241.00" arrivalLane="1040118849#0_0" arrivalPos="165.13" arrivalSpeed="13.65" duration="152.00" routeLength="1016.18" waitingTime="58.00" waitingCount="3" stopTime="0.00" timeLoss="100.58" rerouteNo="1" devices="vehroute_taxi_183 tripinfo_taxi_183 routing_taxi_183" vType="veh_passenger" speedFactor="1.00" vaporized=""/>
    <tripinfo id="taxi_196" depart="95.00" departLane="56720835#3_0" departPos="5.10" departSpeed="0.00" departDelay="0.59" arrival="241.00" arrivalLane="965387812#0_1" arrivalPos="95.61" arrivalSpeed="6.62" duration="146.00" routeLength="943.59" waitingTime="52.00" waitingCount="4" stopTime="0.00" timeLoss="108.11" rerouteNo="1" devices="vehroute_taxi_196 tripinfo_taxi_196 routing_taxi_196" vType="veh_passenger" speedFactor="1.00" vaporized=""/>
    <tripinfo id="taxi_208" depart="101.00" departLane="56720835#3_0" departPos="5.10" departSpeed="0.00" departDelay="0.09" arrival="244.00" arrivalLane="965387812#0_1" arrivalPos="95.61" arrivalSpeed="6.17" duration="143.00" routeLength="943.59" waitingTime="25.00" waitingCount="4" stopTime="0.00" timeLoss="104.94" rerouteNo="1" devices="vehroute_taxi_208 tripinfo_taxi_208 routing_taxi_208" vType="veh_passenger" speedFactor="1.00" vaporized=""/>
    <tripinfo id="taxi_115" depart="89.00" departLane="134319745#0_0" departPos="5.10" departSpeed="0.00" departDelay="33.50" arrival="250.00" arrivalLane="319345470#0_0" arrivalPos="103.39" arrivalSpeed="16.35" duration="161.00" routeLength="1229.55" waitingTime="35.00" waitingCount="3" stopTime="0.00" timeLoss="113.27" rerouteNo="1" devices="vehroute_taxi_115 tripinfo_taxi_115 routing_taxi_115" vType="veh_passenger" speedFactor="1.00" vaporized=""/>
    <tripinfo id="taxi_63" depart="31.00" departLane="23891801#0_0" departPos="5.10" departSpeed="0.00" departDelay="1.80" arrival="251.00" arrivalLane="24106450#6_0" arrivalPos="75.49" arrivalSpeed="13.46" duration="220.00" routeLength="2670.38" waitingTime="25.00" waitingCount="4" stopTime="0.00" timeLoss="105.98" rerouteNo="1" devices="vehroute_taxi_63 tripinfo_taxi_63 routing_taxi_63" vType="veh_passenger" speedFactor="1.00" vaporized=""/>
    <tripinfo id="taxi_142" depart="105.00" departLane="134319745#0_0" departPos="5.10" departSpeed="0.00" departDelay="35.82" arrival="251.00" arrivalLane="319345470#0_0" arrivalPos="103.39" arrivalSpeed="14.17" duration="146.00" routeLength="1229.55" waitingTime="27.00" waitingCount="3" stopTime="0.00" timeLoss="98.83" rerouteNo="1" devices="vehroute_taxi_142 tripinfo_taxi_142 routing_taxi_142" vType="veh_passenger" speedFactor="1.00" vaporized=""/>
    <tripinfo id="taxi_238" depart="117.00" departLane="461207921#0_0" departPos="5.10" departSpeed="0.00" departDelay="0.13" arrival="251.00" arrivalLane="1040118849#0_0" arrivalPos="165.13" arrivalSpeed="12.70" duration="134.00" routeLength="1279.28" waitingTime="32.00" waitingCount="2" stopTime="0.00" timeLoss="72.99" rerouteNo="1" devices="vehroute_taxi_238 tripinfo_taxi_238 routing_taxi_238" vType="veh_passenger" speedFactor="1.00" vaporized=""/>
    <tripinfo id="taxi_338" depart="172.00" departLane="56720835#3_0" departPos="5.10" departSpeed="0.00" departDelay="0.84" arrival="251.00" arrivalLane="965387812#7_0" arrivalPos="109.17" arrivalSpeed="20.26" duration="79.00" routeLength="720.56" waitingTime="6.00" waitingCount="2" stopTime="0.00" timeLoss="48.13" rerouteNo="1" devices="vehroute_taxi_338 tripinfo_taxi_338 routing_taxi_338" vType="veh_passenger" speedFactor="1.00" vaporized=""/>
    <tripinfo id="taxi_136" depart="99.00" departLane="134319745#0_0" departPos="5.10" departSpeed="0.00" departDelay="32.57" arrival="252.00" arrivalLane="319345470#0_1" arrivalPos="103.39" arrivalSpeed="14.82" duration="153.00" routeLength="1229.55" waitingTime="33.00" waitingCount="3" stopTime="0.00" timeLoss="105.77" rerouteNo="1" devices="vehroute_taxi_136 tripinfo_taxi_136 routing_taxi_136" vType="veh_passenger" speedFactor="1.00" vaporized=""/>
    <tripinfo id="taxi_97" depart="48.00" departLane="583081972_1" departPos="5.10" departSpeed="0.00" departDelay="2.40" arrival="255.00" arrivalLane="220306134#2_0" arrivalPos="70.15" arrivalSpeed="19.07" duration="207.00" routeLength="1374.35" waitingTime="82.00" waitingCount="4" stopTime="0.00" timeLoss="148.85" rerouteNo="1" devices="vehroute_taxi_97 tripinfo_taxi_97 routing_taxi_97" vType="veh_passenger" speedFactor="1.00" vaporized=""/>
    <tripinfo id="taxi_31" depart="15.00" departLane="583081972_1" departPos="5.10" departSpeed="0.00" departDelay="1.48" arrival="256.00" arrivalLane="-435657388_0" arrivalPos="48.43" arrivalSpeed="20.60" duration="241.00" routeLength="1727.32" waitingTime="116.00" waitingCount="4" stopTime="0.00" timeLoss="169.07" rerouteNo="1" devices="vehroute_taxi_31 tripinfo_taxi_31 routing_taxi_31" vType="veh_passenger" speedFactor="1.00" vaporized=""/>
    <tripinfo id="taxi_108" depart="54.00" departLane="583081972_1" departPos="5.10" departSpeed="0.00" departDelay="2.64" arrival="258.00" arrivalLane="-435657388_0" arrivalPos="48.43" arrivalSpeed="22.17" duration="204.00" routeLength="1727.69" waitingTime="76.00" waitingCount="4" stopTime="0.00" timeLoss="132.46" rerouteNo="1" devices="vehroute_taxi_108 tripinfo_taxi_108 routing_taxi_108" vType="veh_passenger" speedFactor="1.00" vaporized=""/>
    <tripinfo id="taxi_10" depart="10.00" departLane="134319745#0_0" departPos="5.10" departSpeed="0.00" departDelay="5.99" arrival="262.00" arrivalLane="633946076_0" arrivalPos="43.95" arrivalSpeed="21.10" duration="252.00" routeLength="1976.02" waitingTime="79.00" waitingCount="5" stopTime="0.00" timeLoss="174.00" rerouteNo="1" devices="vehroute_taxi_10 tripinfo_taxi_10 routing_taxi_10" vType="veh_passenger" speedFactor="1.00" vaporized=""/>
    <tripinfo id="taxi_62" depart="29.00" departLane="965387812#0_0" departPos="5.10" departSpeed="0.00" departDelay="0.35" arrival="264.00" arrivalLane="633946076_0" arrivalPos="43.95" arrivalSpeed="17.07" duration="235.00" routeLength="1798.70" waitingTime="88.00" waitingCount="6" stopTime="0.00" timeLoss="166.41" rerouteNo="1" devices="vehroute_taxi_62 tripinfo_taxi_62 routing_taxi_62" vType="veh_passenger" speedFactor="1.00" vaporized=""/>
    <tripinfo id="taxi_7" depart="4.00" departLane="1031291396#1_0" departPos="5.10" departSpeed="0.00" departDelay="0.53" arrival="266.00" arrivalLane="33116710#0_0" arrivalPos="188.31" arrivalSpeed="25.17" duration="262.00" routeLength="2173.54" waitingTime="63.00" waitingCount="9" stopTime="0.00" timeLoss="179.94" rerouteNo="1" devices="vehroute_taxi_7 tripinfo_taxi_7 routing_taxi_7" vType="veh_passenger" speedFactor="1.00" vaporized=""/>
    <tripinfo id="taxi_35" depart="19.00" departLane="1031291396#1_0" departPos="5.10" departSpeed="0.00" departDelay="2.86" arrival="268.00" arrivalLane="33116710#0_0" arrivalPos="188.31" arrivalSpeed="26.63" duration="249.00" routeLength="2173.54" waitingTime="56.00" waitingCount="8" stopTime="0.00" timeLoss="166.41" rerouteNo="1" devices="vehroute_taxi_35 tripinfo_taxi_35 routing_taxi_35" vType="veh_passenger" speedFactor="1.00" vaporized=""/>
    <tripinfo id="taxi_78" depart="38.00" departLane="583081972_0" departPos="5.10" departSpeed="0.00" departDelay="0.88" arrival="275.00" arrivalLane="461207921#0_0" arrivalPos="192.92" arrivalSpeed="5.14" duration="237.00" routeLength="2390.94" waitingTime="47.00" waitingCount="4" stopTime="0.00" timeLoss="140.04" rerouteNo="1" devices="vehroute_taxi_78 tripinfo_taxi_78 routing_taxi_78" vType="veh_passenger" speedFactor="1.00" vaporized=""/>
    <tripinfo id="taxi_121" depart="59.00" departLane="23891801#0_0" departPos="5.10" departSpeed="0.00" departDelay="0.17" arrival="277.00" arrivalLane="965387812#0_0" arrivalPos="95.61" arrivalSpeed="22.61" duration="218.00" routeLength="1321.28" waitingTime="93.00" waitingCount="5" stopTime="0.00" timeLoss="161.64" rerouteNo="1" devices="vehroute_taxi_121 tripinfo_taxi_121 routing_taxi_121" vType="veh_passenger" speedFactor="1.00" vaporized=""/>
    <tripinfo id="taxi_317" depart="158.00" departLane="-834947074#3_0" departPos="5.10" departSpeed="0.00" departDelay="0.51" arrival="277.00" arrivalLane="24098485#0_0" arrivalPos="131.92" arrivalSpeed="13.34" duration="119.00" routeLength="1339.60" waitingTime="17.00" waitingCount="3" stopTime="0.00" timeLoss="59.15" rerouteNo="1" devices="vehroute_taxi_317 tripinfo_taxi_317 routing_taxi_317" vType="veh_passenger" speedFactor="1.00" vaporized=""/>
    <tripinfo id="taxi_286" depart="142.00" departLane="220306134#2_0" departPos="5.10" departSpeed="0.00" departDelay="0.05" arrival="278.00" arrivalLane="633946076_0" arrivalPos="43.95" arrivalSpeed="19.12" duration="136.00" routeLength="1715.03" waitingTime="25.00" waitingCount="2" stopTime="0.00" timeLoss="66.78" rerouteNo="1" devices="vehroute_taxi_286 tripinfo_taxi_286 routing_taxi_286" vType="veh_passenger" speedFactor="1.00" vaporized=""/>
    <tripinfo id="taxi_323" depart="162.00" departLane="220306134#2_3" departPos="5.10" departSpeed="0.00" departDelay="0.16" arrival="278.00" arrivalLane="56720835#3_0" arrivalPos="97.85" arrivalSpeed="21.23" duration="116.00" routeLength="1156.87" waitingTime="24.00" waitingCount="2" stopTime="0.00" timeLoss="69.33" rerouteNo="1" devices="vehroute_taxi_323 tripinfo_taxi_323 routing_taxi_323" vType="veh_passenger" speedFactor="1.00" vaporized=""/>
    <tripinfo id="taxi_36" depart="17.00" departLane="23891801#0_0" departPos="5.10" departSpeed="0.00" departDelay="0.31" arrival="282.00" arrivalLane="319345470#0_0" arrivalPos="103.39" arrivalSpeed="16.39" duration="265.00" routeLength="2410.69" waitingTime="70.00" waitingCount="6" stopTime="0.00" timeLoss="160.09" rerouteNo="1" devices="vehroute_taxi_36 tripinfo_taxi_36 routing_taxi_36" vType="veh_passenger" speedFactor="1.00" vaporized=""/>
    <tripinfo id="taxi_47" depart="22.00" departLane="23891801#0_0" departPos="5.10" departSpeed="0.00" departDelay="0.74" arrival="283.00" arrivalLane="-283273061#9_0" arrivalPos="156.22" arrivalSpeed="21.77" duration="261.00" routeLength="2696.67" waitingTime="79.00" waitingCount="5" stopTime="0.00" timeLoss="144.93" rerouteNo="1" devices="vehroute_taxi_47 tripinfo_taxi_47 routing_taxi_47" vType="veh_passenger" speedFactor="1.00" vaporized=""/>
    <tripinfo id="taxi_2" depart="1.00" departLane="461207921#0_1" departPos="5.10" departSpeed="0.00" departDelay="0.34" arrival="285.00" arrivalLane="23891801#0_0" arrivalPos="274.92" arrivalSpeed="21.16" duration="284.00" routeLength="2046.81" waitingTime="98.00" waitingCount="8" stopTime="0.00" timeLoss="202.85" rerouteNo="1" devices="vehroute_taxi_2 tripinfo_taxi_2 routing_taxi_2" vType="veh_passenger" speedFactor="1.00" vaporized=""/>
    <tripinfo id="taxi_244" depart="121.00" departLane="145857394#0_0" departPos="5.10" departSpeed="0.00" departDelay="0.46" arrival="285.00" arrivalLane="319345470#0_1" arrivalPos="103.39" arrivalSpeed="14.77" duration="164.00" routeLength="1168.25" waitingTime="41.00" waitingCount="5" stopTime="0.00" timeLoss="116.58" rerouteNo="1" devices="vehroute_taxi_244 tripinfo_taxi_244 routing_taxi_244" vType="veh_passenger" speedFactor="1.00" vaporized=""/>
    <tripinfo id="taxi_9" depart="7.00" departLane="134319745#0_0" departPos="5.10" departSpeed="0.00" departDelay="3.02" arrival="286.00" arrivalLane="23891801#0_0" arrivalPos="274.92" arrivalSpeed="21.94" duration="279.00" routeLength="2166.13" waitingTime="99.00" waitingCount="7" stopTime="0.00" timeLoss="196.40" rerouteNo="1" devices="vehroute_taxi_9 tripinfo_taxi_9 routing_taxi_9" vType="veh_passenger" speedFactor="1.00" vaporized=""/>
    <tripinfo id="taxi_45" depart="21.00" departLane="56716746_0" departPos="5.10" departSpeed="0.00" departDelay="0.08" arrival="286.00" arrivalLane="253710123#12_0" arrivalPos="94.66" arrivalSpeed="4.92" duration="265.00" routeLength="2965.86" waitingTime="78.00" waitingCount="5" stopTime="0.00" timeLoss="137.65" rerouteNo="1" devices="vehroute_taxi_45 tripinfo_taxi_45 routing_taxi_45" vType="veh_passenger" speedFactor="1.00" vaporized=""/>
    <tripinfo id="taxi_152" depart="86.00" departLane="33116710#0_0" departPos="5.10" departSpeed="0.00" departDelay="11.62" arrival="286.00" arrivalLane="633946076_0" arrivalPos="43.95" arrivalSpeed="20.60" duration="200.00" routeLength="1728.72" waitingTime="71.00" waitingCount="3" stopTime="0.00" timeLoss="129.70" rerouteNo="1" devices="vehroute_taxi_152 tripinfo_taxi_152 routing_taxi_152" vType="veh_passenger" speedFactor="1.00" vaporized=""/>
    <tripinfo id="taxi_19" depart="16.00" departLane="134319745#0_0" departPos="5.10" departSpeed="0.00" departDelay="8.23" arrival="288.00" arrivalLane="23891801#0_0" arrivalPos="274.92" arrivalSpeed="21.88" duration="272.00" routeLength="2166.13" waitingTime="83.00" waitingCount="6" stopTime="0.00" timeLoss="188.02" rerouteNo="1" devices="vehroute_taxi_19 tripinfo_taxi_19 routing_taxi_19" vType="veh_passenger" speedFactor="1.00" vaporized=""/>
    <tripinfo id="taxi_223" depart="110.00" departLane="1031291396#1_0" departPos="5.10" departSpeed="0.00" departDelay="0.03" arrival="289.00" arrivalLane="1049318471#0_1" arrivalPos="77.85" arrivalSpeed="17.27" duration="179.00" routeLength="1010.50" waitingTime="78.00" waitingCount="5" stopTime="0.00" timeLoss="138.37" rerouteNo="1" devices="vehroute_taxi_223 tripinfo_taxi_223 routing_taxi_223" vType="veh_passenger" speedFactor="1.00" vaporized=""/>
    <tripinfo id="taxi_109" depart="52.00" departLane="965387812#7_0" departPos="5.10" departSpeed="0.00" departDelay="0.18" arrival="292.00" arrivalLane="633946076_0" arrivalPos="43.95" arrivalSpeed="19.78" duration="240.00" routeLength="1560.60" waitingTime="101.00" waitingCount="5" stopTime="0.00" timeLoss="179.67" rerouteNo="1" devices="vehroute_taxi_109 tripinfo_taxi_109 routing_taxi_109" vType="veh_passenger" speedFactor="1.00" vaporized=""/>
    <tripinfo id="taxi_99" depart="48.00" departLane="965387812#0_0" departPos="5.10" departSpeed="0.00" departDelay="0.90" arrival="295.00" arrivalLane="134319745#0_0" arrivalPos="121.88" arrivalSpeed="5.98" duration="247.00" routeLength="1495.26" waitingTime="110.00" waitingCount="6" stopTime="0.00" timeLoss="190.23" rerouteNo="1" devices="vehroute_taxi_99 tripinfo_taxi_99 routing_taxi_99" vType="veh_passenger" speedFactor="1.00" vaporized=""/>