<?xml version="1.0" encoding="UTF-8"?>

<!-- generated on 2022-11-28 19:37:20 by Eclipse SUMO GUI Version v1_15_0+0450-e1b3cbf60b2
<configuration xmlns:xsi="http://www.w3.org/2001/XMLSchema-instance" xsi:noNamespaceSchemaLocation="http://sumo.dlr.de/xsd/sumoConfiguration.xsd">

    <input>
        <net-file value="/Users/mikesoukup/Desktop/NU MSDS/MSDS 452/TrafficAnalysis_MSDS452/sumo/tools/ChicagoNetworkReduced/osm.net.xml"/>
        <route-files value="/Users/mikesoukup/Desktop/NU MSDS/MSDS 452/TrafficAnalysis_MSDS452/sumo/tools/ChicagoNetworkReduced/osm.passenger.trips.xml"/>
    </input>

    <output>
        <tripinfo-output value="/Users/mikesoukup/Desktop/NU MSDS/MSDS 452/TrafficAnalysis_MSDS452/sumo/tools/ChicagoNetworkReduced/tripinfo.xml"/>
        <vehroute-output value="/Users/mikesoukup/Desktop/NU MSDS/MSDS 452/TrafficAnalysis_MSDS452/sumo/tools/ChicagoNetworkReduced/vehroutes.xml"/>
        <collision-output value="/Users/mikesoukup/Desktop/NU MSDS/MSDS 452/TrafficAnalysis_MSDS452/sumo/tools/ChicagoNetworkReduced/collisions.xml"/>
        <statistic-output value="/Users/mikesoukup/Desktop/NU MSDS/MSDS 452/TrafficAnalysis_MSDS452/sumo/tools/ChicagoNetworkReduced/sim_stats_out.xml"/>
    </output>

    <processing>
        <ignore-route-errors value="true"/>
    </processing>

    <routing>
        <device.rerouting.adaptation-steps value="18"/>
        <device.rerouting.adaptation-interval value="10"/>
    </routing>

    <report>
        <verbose value="true"/>
        <duration-log.statistics value="true"/>
        <no-step-log value="true"/>
    </report>

    <gui_only>
        <gui-settings-file value="/Users/mikesoukup/Desktop/NU MSDS/MSDS 452/TrafficAnalysis_MSDS452/sumo/tools/ChicagoNetworkReduced/osm.view.xml"/>
    </gui_only>

</configuration>
-->

<routes xmlns:xsi="http://www.w3.org/2001/XMLSchema-instance" xsi:noNamespaceSchemaLocation="http://sumo.dlr.de/xsd/routes_file.xsd">
    <vehicle id="taxi_25" type="veh_passenger" depart="11.00" departLane="3" speedFactor="1.0000" arrival="97.00">
        <route edges="220306134#2 220306134#3 145857419#0 145857419#3 145857431#0 185741021#0 185741021#2 461207921#0"/>
    </vehicle>

    <vehicle id="taxi_32" type="veh_passenger" depart="15.00" departLane="0" speedFactor="1.0000" arrival="124.00">
        <route edges="145857394#0 1031086697#0 1031086695#0 23890945#0 319352694#0 1031102657#0 314944798#0 319352690#0 1038974453#0 59145227#0 435724080#0 319345470#0"/>
    </vehicle>

    <vehicle id="taxi_94" type="veh_passenger" depart="46.00" departLane="1" speedFactor="1.0000" arrival="138.00">
        <route edges="461207921#0 -24574537#2 482366139#0 -435717217#1 -435717220 -319510066#1 -48842736#2 319352691#0 435717219 220306134#0 220306134#2"/>
    </vehicle>

    <vehicle id="taxi_146" type="veh_passenger" depart="71.00" departLane="1" speedFactor="1.0000" arrival="141.00">
        <route edges="461207921#0 -24574537#2 482366139#0 -435717217#1 -435717220 -319510066#1 -48842736#2 319352691#0 435717219 220306134#0 220306134#2"/>
    </vehicle>

    <vehicle id="taxi_75" type="veh_passenger" depart="37.00" departLane="0" speedFactor="1.0000" arrival="152.00">
        <route edges="1031291396#1 116846056#0 23754646#0 314944794#0 981558230#0 981558232 23761316#0 1033801602#0 230973583 64889181 931237149#0 611574834#0 611574834#1 1049318465#0 1049318466#0 1049318468#0 1049318470#0 1049318471#0"/>
    </vehicle>

    <vehicle id="taxi_43" type="veh_passenger" depart="26.00" departLane="2" speedFactor="1.0000" arrival="155.00">
        <route edges="145857394#0 1031086697#0 -24442485#7 -24442485#3 -24442485#0 -24442486#1 -24442486#0 -483248512#2 -483248512#0 -483248155#1 -283273061#17 -283273061#14 -283273061#12 -283273061#11 -283273061#10 -283273061#9"/>
    </vehicle>

    <vehicle id="taxi_42" type="veh_passenger" depart="24.00" departLane="0" speedFactor="1.0000" arrival="162.00">
        <route edges="145857394#0 1031086697#0 1031086695#0 23890945#0 319352694#0 1031102657#0 314944798#0 319352690#0 1038974453#0 59145227#0 435724080#0 319345470#0"/>
    </vehicle>

    <vehicle id="taxi_11" type="veh_passenger" depart="5.00" departLane="1" speedFactor="1.0000" arrival="185.00">
        <route edges="633946076 618358900#0 230773117#1 621306226 435562941#0 435562941#1 143928401#0 657508356 145846236#0 435562944 59673547#0 314944796#0 1056418851 33116710#0"/>
    </vehicle>

    <vehicle id="taxi_163" type="veh_passenger" depart="80.00" departLane="0" speedFactor="1.0000" arrival="185.00">
        <route edges="965387812#0 4476709#22 1072705343#0 24799918#0 320480947#0 435552719#0 24954753#0 59421858#1 1033720346#0 59421860#0 373849351#0 231139081#0 231139081#2 231139081#4 24799917#0 220306134#0 220306134#2"/>
    </vehicle>

    <vehicle id="taxi_76" type="veh_passenger" depart="36.00" departLane="0" speedFactor="1.0000" arrival="188.00">
        <route edges="220306134#2 220306134#3 59208017#0 435657391 624703084#0 435657392#0 1021843336#0 133743732 377866949 377866949-AddedOffRampEdge 24952978 24955112 48785121#0 230771016#0 621154269 583081977 255564251 583081972 633946076"/>
    </vehicle>

    <vehicle id="taxi_165" type="veh_passenger" depart="80.00" departLane="2" speedFactor="1.0000" arrival="191.00">
        <route edges="56720835#3 1091667417#0 1028884661#0 59421871#0 59421871#1 59421871#2 692609989#2 692609989#4 692609989#5 1040118849#0"/>
    </vehicle>

    <vehicle id="taxi_17" type="veh_passenger" depart="7.00" departLane="0" speedFactor="1.0000" arrival="203.00">
        <route edges="965387812#7 56720835#0 56720835#3 56720835#6 435717211#0 255369219#0 616109240 79785859#0 230775775#0 124538329#2 230771016#0 621154269 583081977 255564251 583081972 633946076"/>
    </vehicle>

    <vehicle id="taxi_39" type="veh_passenger" depart="19.00" departLane="1" speedFactor="1.0000" arrival="204.00">
        <route edges="461207921#0 -24574537#2 482366139#0 255369218#0 255369218#4 255369216#0 255369216#3 23642309#0 56720835#3"/>
    </vehicle>

    <vehicle id="taxi_90" type="veh_passenger" depart="43.00" departLane="1" speedFactor="1.0000" arrival="207.00">
        <route edges="461207921#0 -24574537#2 482366139#0 -435717217#1 -435717220 -319510066#1 -48842736#2 319352691#0 435717219 -48842735#1 -435717214 -23745828 23810097#0 79716320 79652253 751520445 -319352693 48782909#0 -618358896 -618358899 255564251 583081972"/>
    </vehicle>

    <vehicle id="taxi_44" type="veh_passenger" depart="21.00" departLane="2" speedFactor="1.0000" arrival="208.00">
        <route edges="56720835#3 56720835#6 435717211#0 48842832#0 616761429#0 435656636#0 616758277#0 435656628#0 255369389#0 518572584#0 435656633#0 435656620#0 1042140317#0 1042140319 59420701#0 -820869677 -316912742"/>
    </vehicle>

    <vehicle id="taxi_58" type="veh_passenger" depart="50.00" departLane="0" speedFactor="1.0000" arrival="208.00">
        <route edges="134319745#0 1049318473#0 934416472 805924007#0 435724061#0 934416473 434705483#0 48785305#0 615643981#0 615644380#0 433783095#0 519223974#0 615645277#0 33116710#0"/>
    </vehicle>

    <vehicle id="taxi_141" type="veh_passenger" depart="69.00" departLane="1" speedFactor="1.0000" arrival="209.00">
        <route edges="1040118849#0 1040118850#0 1040118851#0 435656627#0 1031079365#0 56720834#0 57377325 420306210 -294565005#14 -294565005#13 -294565005#12 -294565005#10 -294565005#9 -294565005#7 24098485#0"/>
    </vehicle>

    <vehicle id="taxi_155" type="veh_passenger" depart="77.00" departLane="1" speedFactor="1.0000" arrival="220.00">
        <route edges="461207921#0 -24574537#2 482366139#0 -435717217#1 -435717220 -319510066#1 -48842736#2 319352691#0 435717219 -48842735#1 -435717214 -23745828 23810097#0 79716320 79652253 751520445 -319352693 48782909#0 -618358896 -618358899 255564251 583081972"/>
    </vehicle>

    <vehicle id="taxi_151" type="veh_passenger" depart="76.00" departLane="0" speedFactor="1.0000" arrival="223.00">
        <route edges="1031291396#1 116846056#0 23754646#0 314944794#0 981558230#0 981558232 23761316#0 1033801602#0 230973583 64889181 931237149#0 611574834#0 611574834#1 1049318465#0 1049318466#0 1049318468#0 1049318470#0 1049318471#0"/>
    </vehicle>

    <vehicle id="taxi_70" type="veh_passenger" depart="33.00" departLane="0" speedFactor="1.0000" arrival="224.00">
        <route edges="153561203#0 293924998 1033807616 220528679#0 220528679#1 220528679#2 220528679#4 4476709#0 4476709#4 4476709#7 4476709#10 4476709#16 965387812#4 965387812#7 56720835#0 56720835#3"/>
    </vehicle>

    <vehicle id="taxi_64" type="veh_passenger" depart="30.00" departLane="0" speedFactor="1.0000" arrival="225.00">
        <route edges="153561203#0 293924998 1033807616 220528679#0 220528679#1 220528679#2 220528679#4 4476709#0 4476709#4 4476709#7 4476709#10 4476709#16 965387812#4 965387812#7 56720835#0 56720835#3"/>
    </vehicle>

    <vehicle id="taxi_77" type="veh_passenger" depart="37.00" departLane="0" speedFactor="1.0000" arrival="225.00">
        <route edges="24106450#6 31009529#2 31009529#3 31009529#4 -24371588#0 -435397248#1 -435397251#2 -57376889#2 435397335#0 23987459 294395159#0"/>
    </vehicle>

    <vehicle id="taxi_23" type="veh_passenger" depart="10.00" departLane="0" speedFactor="1.0000" arrival="227.00">
        <route edges="23891801#0 186982055#0 -48842234#7 -48842234#6 435650713#0 435650709 26297152#1 26297152#3 26297152#5 435650712#0 -337517718#3 24442279 -24442253 -143930348#1 -435650705#1 -435724020#1 -435724020#0 -435724019#1 -483248512#2 -483248512#0 -483248155#1 -283273061#17 -283273061#14 -283273061#12 -283273061#11 -283273061#10 -283273061#9"/>
    </vehicle>

    <vehicle id="taxi_30" type="veh_passenger" depart="13.00" departLane="0" speedFactor="1.0000" arrival="229.00">
        <route edges="23891801#0 186982055#0 -48842234#7 -48842234#6 435650713#0 435650709 26297152#1 26297152#3 26297152#5 435650712#0 -337517718#3 24442279 -24442253 -143930348#1 -435650705#1 -435724020#1 -435724020#0 -435724019#1 -483248512#2 -483248512#0 -483248155#1 -283273061#17 -283273061#14 -283273061#12 -283273061#11 -283273061#10 -283273061#9"/>
    </vehicle>

    <vehicle id="taxi_68" type="veh_passenger" depart="59.00" departLane="0" speedFactor="1.0000" arrival="230.00">
        <route edges="134319745#0 -134319745#4 -805911049#1 -134319743#1 -435704691#1 -435704692#1 -435704687#1 1028896252#1 1028896253 1028896254#0 23810320#0 1028896256#0 991212731#0 991212731#3 1031555246 435724121#0 435724120 373849347 23810303#0 750293703#0 23890903 319358168#0 23890906#0 145857394#0"/>
    </vehicle>

    <vehicle id="taxi_107" type="veh_passenger" depart="51.00" departLane="0" speedFactor="1.0000" arrival="230.00">
        <route edges="23891801#0 186982055#0 -48842234#7 -48842234#6 -435650710#1 -143925554#2 -435552711#1 435549673#0 435549677#0 435549657#0 24574542#0 24574542#3 24574542#9 965387812#0 965387812#4 965387812#7"/>
    </vehicle>

    <vehicle id="taxi_38" type="veh_passenger" depart="31.00" departLane="0" speedFactor="1.0000" arrival="238.00">
        <route edges="134319745#0 1049318473#0 934416472 805924007#0 615900441#0 615900435#0 4543179#0 373852572#0 255368623#0 435724080#0 319345470#0"/>
    </vehicle>

    <vehicle id="taxi_59" type="veh_passenger" depart="27.00" departLane="1" speedFactor="1.0000" arrival="238.00">
        <route edges="461207921#0 -24574537#2 482366139#0 255369218#0 255369218#4 255369216#0 255369216#3 23642309#0 56720835#3"/>
    </vehicle>

    <vehicle id="taxi_26" type="veh_passenger" depart="22.00" departLane="0" speedFactor="1.0000" arrival="239.00">
        <route edges="134319745#0 1049318473#0 934416472 805924007#0 615900441#0 615900435#0 4543179#0 373852572#0 255368623#0 435724080#0 319345470#0"/>
    </vehicle>

    <vehicle id="taxi_156" type="veh_passenger" depart="76.00" departLane="0" speedFactor="1.0000" arrival="240.00">
        <route edges="145857394#0 1031086697#0 1031086695#0 23890945#0 319352694#0 1031102657#0 314944798#0 319352690#0 1038974453#0 59145227#0 435724080#0 319345470#0"/>
    </vehicle>

    <vehicle id="taxi_183" type="veh_passenger" depart="89.00" departLane="2" speedFactor="1.0000" arrival="241.00">
        <route edges="56720835#3 1091667417#0 1028884661#0 59421871#0 59421871#1 59421871#2 692609989#2 692609989#4 692609989#5 1040118849#0"/>
    </vehicle>

    <vehicle id="taxi_196" type="veh_passenger" depart="95.00" departLane="0" speedFactor="1.0000" arrival="241.00">
        <route edges="56720835#3 -59430171#2 48842495#2 48842495#5 1022314515#0 435552716#0 435552713#0 435552710#0 435552708#0 23891761#0 980829990#0 435551662#0 965387812#0"/>
    </vehicle>

    <vehicle id="taxi_208" type="veh_passenger" depart="101.00" departLane="0" speedFactor="1.0000" arrival="244.00">
        <route edges="56720835#3 -59430171#2 48842495#2 48842495#5 1022314515#0 435552716#0 435552713#0 435552710#0 435552708#0 23891761#0 980829990#0 435551662#0 965387812#0"/>
    </vehicle>

    <vehicle id="taxi_115" type="veh_passenger" depart="89.00" departLane="0" speedFactor="1.0000" arrival="250.00">
        <route edges="134319745#0 1049318473#0 934416472 805924007#0 615900441#0 615900435#0 4543179#0 373852572#0 255368623#0 435724080#0 319345470#0"/>
    </vehicle>

    <vehicle id="taxi_63" type="veh_passenger" depart="31.00" departLane="0" speedFactor="1.0000" arrival="251.00">
        <route edges="23891801#0 186982055#0 48842234#8 24109707#0 -187126667#5 -187126667#3 -187126667#2 56720865#3 56720865#8 435555350#0 435555351#0 24203326#0 24203326#2 24203326#4 24203326#5 24203326#6 24203326#8 24203326#10 24203326#11 621248043 231656308#0 -435397316#1 -435397330#4 -1056720785#2 -435397303#1 -435397294#2 -293871266#3 -435397246#1 -435397253#10 24106450#4 24106450#6"/>
    </vehicle>

    <vehicle id="taxi_142" type="veh_passenger" depart="105.00" departLane="0" speedFactor="1.0000" arrival="251.00">
        <route edges="134319745#0 1049318473#0 934416472 805924007#0 615900441#0 615900435#0 4543179#0 373852572#0 255368623#0 435724080#0 319345470#0"/>
    </vehicle>

    <vehicle id="taxi_238" type="veh_passenger" depart="117.00" departLane="0" speedFactor="1.0000" arrival="251.00">
        <route edges="461207921#0 255412143#0 616752042#0 435717656#0 -761406134 -316912740 -761406135 -435717649#1 -435717648 -106783555#2 -435717655#1 -435717651 -435717652#1 692609989#2 692609989#4 692609989#5 1040118849#0"/>
    </vehicle>

    <vehicle id="taxi_338" type="veh_passenger" depart="172.00" departLane="0" speedFactor="1.0000" arrival="251.00">
        <route edges="56720835#3 -59430171#2 48842495#2 48842495#5 1022314515#0 435552716#0 435552713#0 293934965#4 965387812#7"/>
    </vehicle>

    <vehicle id="taxi_136" type="veh_passenger" depart="99.00" departLane="0" speedFactor="1.0000" arrival="252.00">
        <route edges="134319745#0 1049318473#0 934416472 805924007#0 615900441#0 615900435#0 4543179#0 373852572#0 255368623#0 435724080#0 319345470#0"/>
    </vehicle>

    <vehicle id="taxi_97" type="veh_passenger" depart="48.00" departLane="1" speedFactor="1.0000" arrival="255.00">
        <route edges="583081972 633946076 618358902#0 24954945#0 235916946 583081974 89156520 230999252 618358896 618358895#0 124538338#1 230775771#1 740994005 79652244#0 23745828 435717214 282848831 220306134#0 220306134#2"/>
    </vehicle>

    <vehicle id="taxi_31" type="veh_passenger" depart="15.00" departLane="1" speedFactor="1.0000" arrival="256.00">
        <route edges="583081972 633946076 618358902#0 24954945#0 235916946 583081974 255564252 583081975 235918342 435717221#0 48784762 26234080 48785391 377866948 827643224#0 133743728#2 48784578#0 -435657388"/>
    </vehicle>

    <vehicle id="taxi_108" type="veh_passenger" depart="54.00" departLane="1" speedFactor="1.0000" arrival="258.00">
        <route edges="583081972 633946076 618358902#0 24954945#0 235916946 583081974 255564252 583081975 235918342 435717221#0 48784762 26234080 48785391 377866948 827643224#0 133743728#2 48784578#0 -435657388"/>
    </vehicle>

    <vehicle id="taxi_10" type="veh_passenger" depart="10.00" departLane="0" speedFactor="1.0000" arrival="262.00">
        <route edges="134319745#0 -134319745#4 -805911049#1 -134319743#1 -435704691#1 -435704692#1 -435704687#1 747171895#0 23810302#6 23810302#9 23810302#11 23810302#14 48785421#0 59401052#0 48784318#0 48784318#2 236033793 24955648#1 89156517 583081972 633946076"/>
    </vehicle>

    <vehicle id="taxi_62" type="veh_passenger" depart="29.00" departLane="0" speedFactor="1.0000" arrival="264.00">
        <route edges="965387812#0 965387812#4 965387812#7 56720835#0 56720835#3 56720835#6 435717211#0 255369219#0 616109240 79785859#0 230775775#0 124538329#2 230771016#0 621154269 583081977 255564251 583081972 633946076"/>
    </vehicle>

    <vehicle id="taxi_7" type="veh_passenger" depart="4.00" departLane="0" speedFactor="1.0000" arrival="266.00">
        <route edges="1031291396#1 116846056#0 23754646#0 59145227#0 319352692#0 615900426#0 319352697#0 4476717#0 79654776 373852571#0 316762109#0 435724106#0 319345472#0 435724109#0 435724109#3 434705483#0 48785305#0 615643981#0 615644380#0 433783095#0 519223974#0 615645277#0 33116710#0"/>
    </vehicle>

    <vehicle id="taxi_35" type="veh_passenger" depart="19.00" departLane="0" speedFactor="1.0000" arrival="268.00">
        <route edges="1031291396#1 116846056#0 23754646#0 59145227#0 319352692#0 615900426#0 319352697#0 4476717#0 79654776 373852571#0 316762109#0 435724106#0 319345472#0 435724109#0 435724109#3 434705483#0 48785305#0 615643981#0 615644380#0 433783095#0 519223974#0 615645277#0 33116710#0"/>
    </vehicle>

    <vehicle id="taxi_78" type="veh_passenger" depart="38.00" departLane="0" speedFactor="1.0000" arrival="275.00">
        <route edges="583081972 633946076 618358900#0 230773117#1 621306226 435562941#0 435562941#1 143928401#0 145846237#0 435657105#0 230975353 435658247#0 255370137#0 230775772 518566644#0 56720832#0 56720832#3 319510066#0 435717220 435717217#0 -616752043#1 482366135#0 482366136#0 185741021#2 461207921#0"/>
    </vehicle>

    <vehicle id="taxi_121" type="veh_passenger" depart="59.00" departLane="0" speedFactor="1.0000" arrival="277.00">
        <route edges="23891801#0 186982055#0 -48842234#7 -48842234#6 -435650710#1 -143925554#2 -435552711#1 435549673#0 435549677#0 435549657#0 24574542#0 24574542#3 24574542#9 965387812#0"/>
    </vehicle>

    <vehicle id="taxi_317" type="veh_passenger" depart="158.00" departLane="0" speedFactor="1.0000" arrival="277.00">
        <route edges="-834947074#3 784110260 -435397291#2 -435397290#1 -435397292#1 -435832376#1 -24203446#8 -24203446#4 -24203446#2 -294565005#12 -294565005#10 -294565005#9 -294565005#7 24098485#0"/>
    </vehicle>

    <vehicle id="taxi_286" type="veh_passenger" depart="142.00" departLane="0" speedFactor="1.0000" arrival="278.00">
        <route edges="220306134#2 220306134#3 59208017#0 435657391 624703084#0 435657392#0 1021843336#0 133743732 377866949 377866949-AddedOffRampEdge 24952978 24955112 48785121#0 230771016#0 621154269 583081977 255564251 583081972 633946076"/>
    </vehicle>

    <vehicle id="taxi_323" type="veh_passenger" depart="162.00" departLane="3" speedFactor="1.0000" arrival="278.00">
        <route edges="220306134#2 220306134#3 145857419#0 616103341#0 319352696#0 1023289873#0 255369217#0 983606459#0 983606459#2 704254874 48842496#0 373849355 48842495#2 -23642309#6 56720835#3"/>
    </vehicle>

    <vehicle id="taxi_36" type="veh_passenger" depart="17.00" departLane="0" speedFactor="1.0000" arrival="282.00">
        <route edges="23891801#0 186982055#0 -48842234#7 -48842234#6 -48842234#3 -48842234#1 23810501 -929942823#1 -449387215 -992404327#1 992404331#0 992404339#1 992404339#2 -59145215#6 434705485#0 23890945#0 319352694#0 1031102657#0 314944798#0 319352690#0 1038974453#0 59145227#0 435724080#0 319345470#0"/>
    </vehicle>

    <vehicle id="taxi_47" type="veh_passenger" depart="22.00" departLane="0" speedFactor="1.0000" arrival="283.00">
        <route edges="23891801#0 186982055#0 -48842234#7 -48842234#6 435650713#0 435650709 26297152#1 26297152#3 26297152#5 435650712#0 -337517718#3 24442279 -24442253 -143930348#1 -435650705#1 -435724020#1 -435724020#0 -435724019#1 -483248512#2 -483248512#0 -483248155#1 -283273061#17 -283273061#14 -283273061#12 -283273061#11 -283273061#10 -283273061#9"/>
    </vehicle>

    <vehicle id="taxi_2" type="veh_passenger" depart="1.00" departLane="1" speedFactor="1.0000" arrival="285.00">
        <route edges="461207921#0 -24574537#2 482366139#0 255369218#0 255369218#4 255369216#0 255369216#3 255369216#6 1028871515#0 1028871519#0 1028871523#0 32109592#0 319358169#0 319358169#4 23891801#0"/>
    </vehicle>

    <vehicle id="taxi_244" type="veh_passenger" depart="121.00" departLane="0" speedFactor="1.0000" arrival="285.00">
        <route edges="145857394#0 1031086697#0 1031086695#0 23890945#0 319352694#0 1031102657#0 314944798#0 319352690#0 1038974453#0 59145227#0 435724080#0 319345470#0"/>
    </vehicle>

    <vehicle id="taxi_9" type="veh_passenger" depart="7.00" departLane="0" speedFactor="1.0000" arrival="286.00">
        <route edges="134319745#0 -134319745#4 -805911049#1 -134319743#1 -435704691#1 -435704692#1 -435704687#1 747171895#0 747171895#3 1028908658#0 1028908656#0 -740619094#1 48842261 435706057#0 435551659#0 435551655#0 416556732#0 1031074961 435551662#0 1031077603#0 435551652#0 32109592#0 319358169#0 319358169#4 23891801#0"/>
    </vehicle>

    <vehicle id="taxi_45" type="veh_passenger" depart="21.00" departLane="0" speedFactor="1.0000" arrival="286.00">
        <route edges="56716746 56716747 898010482#0 898010482#1-AddedOnRampEdge 898010482#1 26231854 24574542#0 24574542#3 24574542#9 1031077603#0 435551652#0 435551654#0 435551653#0 435555344#0 983237119#0 435555347#0 435555347#3 435555342#0 435551663#0 435551663#2 435551663#3 435555343#0 253710123#12"/>
    </vehicle>

    <vehicle id="taxi_152" type="veh_passenger" depart="86.00" departLane="0" speedFactor="1.0000" arrival="286.00">
        <route edges="33116710#0 25026653#0 914518496#0 914518495 23889162#0 171819296 235739316 230771008#1 -235921053 26233909#0 618358897 -618358899 255564251 583081972 633946076"/>
    </vehicle>

    <vehicle id="taxi_19" type="veh_passenger" depart="16.00" departLane="0" speedFactor="1.0000" arrival="288.00">
        <route edges="134319745#0 -134319745#4 -805911049#1 -134319743#1 -435704691#1 -435704692#1 -435704687#1 747171895#0 747171895#3 1028908658#0 1028908656#0 -740619094#1 48842261 435706057#0 435551659#0 435551655#0 416556732#0 1031074961 435551662#0 1031077603#0 435551652#0 32109592#0 319358169#0 319358169#4 23891801#0"/>
    </vehicle>

    <vehicle id="taxi_223" type="veh_passenger" depart="110.00" departLane="0" speedFactor="1.0000" arrival="289.00">
        <route edges="1031291396#1 116846056#0 23754646#0 314944794#0 981558230#0 981558232 23761316#0 1033801602#0 230973583 64889181 931237149#0 611574834#0 611574834#1 1049318465#0 1049318466#0 1049318468#0 1049318470#0 1049318471#0"/>
    </vehicle>

    <vehicle id="taxi_109" type="veh_passenger" depart="52.00" departLane="0" speedFactor="1.0000" arrival="292.00">
        <route edges="965387812#7 56720835#0 56720835#3 56720835#6 435717211#0 255369219#0 616109240 79785859#0 230775775#0 124538329#2 230771016#0 621154269 583081977 255564251 583081972 633946076"/>
    </vehicle>

    <vehicle id="taxi_99" type="veh_passenger" depart="48.00" departLane="0" speedFactor="1.0000" arrival="295.00">
        <route edges="965387812#0 4476709#22 1072705343#0 1072705343#4 1072705343#8 1072705344#0 758223624#1 758223624#5 435706056#0 435724014#0 932951026#0 435724013#0 805911051#0 435724110#0 435724113#0 134319745#0"/>
    </vehicle>

    <vehicle id="taxi_98" type="veh_passenger" depart="47.00" departLane="2" speedFactor="1.0000" arrival="297.00">
        <route edges="965387812#7 56720835#0 56720835#3 56720835#6 435717211#0 48842832#0 616761429#0 435656636#0 616758277#0 435656628#0 255369389#0 518572584#0 435656633#0 435656620#0 1042140317#0 1042140319 59420701#0 -820869677 -316912742"/>
    </vehicle>

    <vehicle id="taxi_157" type="veh_passenger" depart="77.00" departLane="0" speedFactor="1.0000" arrival="297.00">
        <route edges="965387812#0 4476709#22 1072705343#0 1072705343#4 1072705343#8 1072705344#0 758223624#1 758223624#5 435706056#0 435724014#0 932951026#0 435724013#0 805911051#0 435724110#0 435724113#0 134319745#0"/>
    </vehicle>

    <vehicle id="taxi_100" type="veh_passenger" depart="48.00" departLane="0" speedFactor="1.0000" arrival="299.00">
        <route edges="33116710#0 25026653#0 -25026653#2 -435657099#1 163148296#0 435562943 163148295#0 416548018#0 435562948 4477285#0 633949079#0 1002803298 1002803297#0 433783097#0 435724119#0 435724110#0 435724113#0 134319745#0"/>
    </vehicle>

    <vehicle id="taxi_133" type="veh_passenger" depart="65.00" departLane="0" speedFactor="1.0000" arrival="301.00">
        <route edges="965387812#0 4476709#22 1072705343#0 1072705343#4 1072705343#8 1072705344#0 758223624#1 758223624#5 435706056#0 435724014#0 932951026#0 435724013#0 805911051#0 435724110#0 435724113#0 134319745#0"/>
    </vehicle>

    <vehicle id="taxi_14" type="veh_passenger" depart="5.00" departLane="0" speedFactor="1.0000" arrival="305.00">
        <route edges="24098485#0 24098485#4 24098485#5 -24106558#4 -24106558#3 -24106558#2 -24106558#1 435832376#0 435397292#0 435397290#0 435397291#1 -784110260 834947076#0 834947076#2 834947076#5 435556075#0 435556076#0 435556074#0 435556073#0 435556078 435556077#0 435556079#0 435556079#3 435556079#5 435555358 435555361#0 435555354#0 435555353#0 435555356 435555362#0 435555352#0 435555360#0 435555357 435555355#0 435555359#0 435551670#0 435551671 435551668#0 435551669#0 -435551673#1 -320480953#1 -435551674#1 24954753#0 59421858#1 1033720346#0 59421860#0 373849351#0 231139081#0 231139081#2 231139081#4 24799917#0 220306134#0 220306134#2"/>
    </vehicle>

    <vehicle id="taxi_276" type="veh_passenger" depart="138.00" departLane="1" speedFactor="1.0000" arrival="309.00">
        <route edges="319345470#0 443354605#0 443354605#2 233930069#0 433780229#0 -953072627#3 -435724055#1 -435724047 -435724049 -435724054#1 -435724048#2 -23646718#8 -23646718#6 26233018#2 26233018#5 26233018#8 26233018#9 24102123#0 24102123#4"/>
    </vehicle>

    <vehicle id="taxi_51" type="veh_passenger" depart="23.00" departLane="1" speedFactor="1.0000" arrival="315.00">
        <route edges="583081972 633946076 618358900#0 230773117#1 621306226 435562941#0 435562941#1 143928401#0 1051036580#0 1051036582#0 143928402#0 1051036583#0 320480949#0 1031100803#0 1028896245#0 1028896247#0 1028896248#0 1028896249 1028896250 1028896252#0 435704687#0 435704692#0 435704691#0 134319743#0 435724021 134319745#0"/>
    </vehicle>

    <vehicle id="taxi_85" type="veh_passenger" depart="41.00" departLane="0" speedFactor="1.0000" arrival="316.00">
        <route edges="-834947074#3 834947076#0 834947076#2 834947076#5 435556075#0 435556076#0 435556074#0 435556073#0 435556078 435556077#0 435556079#0 435556079#3 435556079#5 435555358 435555361#0 435555354#0 435555353#0 435555356 435555362#0 435555352#0 435555360#0 435555357 435555355#0 435555359#0 1028871515#0 1028871519#0 1028871523#0 1028871527#0 435551649#0 965387812#0"/>
    </vehicle>

    <vehicle id="taxi_66" type="veh_passenger" depart="32.00" departLane="1" speedFactor="1.0000" arrival="318.00">
        <route edges="583081972 633946076 618358900#0 230773117#1 621306226 435562941#0 435562941#1 143928401#0 1051036580#0 1051036582#0 143928402#0 1051036583#0 320480949#0 1031100803#0 1028896245#0 1028896247#0 1028896248#0 1028896249 1028896250 1028896252#0 435704687#0 435704692#0 435704691#0 134319743#0 435724021 134319745#0"/>
    </vehicle>

    <vehicle id="taxi_148" type="veh_passenger" depart="73.00" departLane="0" speedFactor="1.0000" arrival="318.00">
        <route edges="24106450#6 -31009529#1 -313471979#3 293871266#0 435397294#0 1022531617#0 435555348 435555339#0 435555341#0 435551646#0 435551646#2 435551646#3 435555337#0 980796032#0 435555338#0 435555349#0 1050971276#0 435551651#0 435551660#0 1028871527#0 435551649#0 965387812#0"/>
    </vehicle>

    <vehicle id="taxi_20" type="veh_passenger" depart="8.00" departLane="0" speedFactor="1.0000" arrival="319.00">
        <route edges="145857394#0 1031086697#0 1031086695#0 434705482#0 23890930#0 373849343#0 -373849357#1 23810302#0 23810302#2 23810302#6 23810302#9 23810302#11 23810302#14 48785421#0 56400792#0 1051036581#0 633949078#0 1051441726#0 1051441726#3 1051441728#0 1051441729#0 1051441730#0 615645277#0 33116710#0"/>
    </vehicle>

    <vehicle id="taxi_67" type="veh_passenger" depart="35.00" departLane="1" speedFactor="1.0000" arrival="320.00">
        <route edges="583081972 633946076 618358900#0 230773117#1 621306226 435562941#0 435562941#1 143928401#0 1051036580#0 1051036582#0 143928402#0 1051036583#0 320480949#0 1031100803#0 1028896245#0 1028896247#0 1028896248#0 1028896249 1028896250 1028896252#0 435704687#0 435704692#0 435704691#0 134319743#0 435724021 134319745#0"/>
    </vehicle>

    <vehicle id="taxi_15" type="veh_passenger" depart="6.00" departLane="0" speedFactor="1.0000" arrival="321.00">
        <route edges="33116710#0 25026653#0 -25026653#2 -435657099#1 163148296#0 435562943 294582657#0 1051441727#0 319345473#0 435724084#0 435724079#0 615900441#0 615900435#0 4543179#0 373852572#0 255368623#0 435724080#0 319345470#0"/>
    </vehicle>

    <vehicle id="taxi_56" type="veh_passenger" depart="46.00" departLane="0" speedFactor="1.0000" arrival="321.00">
        <route edges="134319745#0 -134319745#4 -805911049#1 -134319743#1 -435704691#1 -435704692#1 -435704687#1 747171895#0 23810302#6 23810302#9 23810302#11 23810302#14 48785421#0 59401052#0 48784318#0 48784318#2 236033793 24955648#1 89156517 583081972 633946076"/>
    </vehicle>
